/*--------------------------------*- C++ -*----------------------------------*\
| =========                 |                                                 |
| \\      /  F ield         | OpenFOAM: The Open Source CFD Toolbox           |
|  \\    /   O peration     | Version:  v1906                                 |
|   \\  /    A nd           | Web:      www.OpenFOAM.com                      |
|    \\/     M anipulation  |                                                 |
\*---------------------------------------------------------------------------*/
FoamFile
{
    version     2.0;
    format      ascii;
    class       volScalarField;
    location    "0.4";
    object      p;
}
// * * * * * * * * * * * * * * * * * * * * * * * * * * * * * * * * * * * * * //

dimensions      [0 2 -2 0 0 0 0];


internalField   nonuniform List<scalar> 
800
(
2.09017e-07
0.00935065
0.0222244
0.0350955
0.0488756
0.06349
0.0792356
0.0964694
0.1157
0.137639
0.16329
0.194064
0.231944
0.279869
0.342498
0.424358
0.527363
0.696384
1.07693
1.25834
-0.00632961
0.00136057
0.0133195
0.0254258
0.0384381
0.0521631
0.0668255
0.0826882
0.100127
0.119645
0.141905
0.167741
0.198137
0.23414
0.276917
0.325444
0.369188
0.402612
0.449603
0.278702
-0.0180859
-0.0129498
-0.00253114
0.00827785
0.0199344
0.0321052
0.0448731
0.0583368
0.0726344
0.0879035
0.10422
0.121476
0.139129
0.155734
0.168359
0.170672
0.148537
0.0845352
-0.0341804
-0.281119
-0.031655
-0.0285245
-0.0195884
-0.0101148
8.42024e-05
0.0105635
0.0212494
0.0320587
0.0428677
0.0534255
0.0632266
0.0713135
0.0759618
0.0742393
0.0615615
0.0310175
-0.0272599
-0.123169
-0.265421
-0.473061
-0.0469732
-0.0452589
-0.0377188
-0.0296054
-0.0209595
-0.012315
-0.00390657
0.0039944
0.0110027
0.0165055
0.0195149
0.018478
0.0110551
-0.00607273
-0.0372267
-0.0875465
-0.162264
-0.264754
-0.396201
-0.556599
-0.0645657
-0.0638613
-0.0576976
-0.0510169
-0.0440678
-0.0374558
-0.0315709
-0.0268659
-0.0239603
-0.0237547
-0.027554
-0.0371829
-0.0550489
-0.0840761
-0.127417
-0.187934
-0.267362
-0.365194
-0.478366
-0.601192
-0.0846828
-0.0846546
-0.0798501
-0.0746735
-0.0695571
-0.0651573
-0.061999
-0.0606868
-0.0620126
-0.0670446
-0.0771949
-0.094233
-0.120203
-0.157191
-0.206928
-0.270285
-0.346723
-0.433891
-0.52771
-0.622785
-0.107448
-0.107802
-0.104318
-0.100699
-0.097518
-0.0954595
-0.0951449
-0.0972778
-0.102733
-0.112605
-0.128207
-0.150999
-0.182416
-0.223598
-0.275041
-0.336284
-0.405702
-0.480542
-0.557259
-0.632063
-0.132968
-0.133464
-0.131243
-0.129213
-0.128031
-0.128377
-0.130917
-0.136386
-0.145642
-0.15967
-0.179528
-0.206228
-0.240551
-0.282818
-0.332686
-0.389024
-0.449946
-0.513019
-0.57561
-0.635309
-0.161329
-0.16179
-0.160755
-0.160322
-0.161149
-0.163881
-0.169168
-0.1777
-0.190225
-0.207519
-0.230301
-0.259114
-0.294174
-0.33523
-0.38149
-0.431638
-0.48396
-0.536571
-0.587674
-0.635807
-0.192575
-0.192881
-0.192941
-0.194078
-0.196865
-0.201873
-0.209674
-0.220846
-0.235957
-0.255521
-0.279908
-0.309257
-0.343375
-0.381694
-0.423277
-0.466896
-0.51118
-0.554782
-0.596536
-0.635579
-0.226697
-0.226776
-0.227822
-0.230463
-0.235098
-0.242182
-0.252157
-0.265434
-0.282368
-0.303204
-0.328012
-0.356631
-0.388634
-0.423335
-0.45984
-0.497139
-0.534218
-0.570163
-0.604249
-0.63598
-0.263614
-0.263433
-0.265344
-0.269386
-0.275702
-0.284588
-0.296317
-0.31111
-0.329101
-0.350302
-0.374557
-0.401526
-0.430688
-0.461374
-0.492829
-0.524285
-0.555037
-0.584496
-0.612225
-0.637955
-0.303163
-0.302714
-0.305371
-0.310685
-0.318477
-0.328848
-0.341884
-0.357609
-0.375962
-0.396775
-0.419751
-0.444474
-0.470426
-0.497032
-0.523707
-0.549905
-0.575161
-0.599115
-0.621522
-0.642247
-0.345068
-0.344364
-0.347672
-0.354134
-0.363197
-0.374742
-0.388662
-0.404803
-0.42295
-0.442815
-0.464037
-0.486194
-0.508831
-0.531494
-0.553762
-0.575273
-0.595744
-0.614975
-0.632847
-0.649314
-0.388895
-0.387963
-0.391881
-0.399428
-0.409626
-0.422109
-0.436593
-0.452768
-0.47031
-0.488871
-0.508086
-0.527582
-0.547001
-0.566014
-0.584344
-0.601772
-0.618143
-0.63336
-0.647382
-0.660216
-0.433979
-0.432838
-0.437406
-0.446079
-0.457404
-0.470756
-0.48568
-0.501744
-0.518539
-0.535687
-0.552843
-0.569696
-0.585989
-0.601519
-0.61614
-0.629762
-0.642343
-0.653882
-0.664405
-0.673961
-0.4795
-0.478371
-0.483832
-0.493815
-0.506353
-0.520576
-0.535916
-0.551877
-0.568033
-0.584028
-0.599567
-0.614409
-0.628372
-0.64133
-0.653206
-0.663974
-0.673642
-0.682253
-0.689871
-0.69658
-0.524486
-0.524822
-0.532522
-0.544788
-0.559172
-0.574586
-0.590362
-0.605953
-0.620933
-0.635
-0.64796
-0.65971
-0.670222
-0.679528
-0.687698
-0.694827
-0.701025
-0.7064
-0.711055
-0.715082
-0.56279
-0.566779
-0.57881
-0.595365
-0.613832
-0.633054
-0.652314
-0.67099
-0.688561
-0.704635
-0.718948
-0.731354
-0.74181
-0.750365
-0.757131
-0.762269
-0.765963
-0.768411
-0.769821
-0.770398
-1.19006
-2.29644
-2.32441
-2.11761
-1.91989
-1.75795
-1.62969
-1.52787
-1.44506
-1.37595
-1.31707
-1.26607
-1.22132
-1.18168
-1.14634
-1.1148
-1.08702
-1.06306
-1.04521
-1.03207
-0.80609
-1.47578
-1.69442
-1.7255
-1.68647
-1.61761
-1.54194
-1.47021
-1.40543
-1.34774
-1.29645
-1.25073
-1.2098
-1.17301
-1.13989
-1.11016
-1.08392
-1.06127
-1.04448
-1.03186
-0.740999
-1.11904
-1.34319
-1.45271
-1.48967
-1.48123
-1.4486
-1.40571
-1.36
-1.31506
-1.2725
-1.23291
-1.19642
-1.16294
-1.13238
-1.1047
-1.08016
-1.05893
-1.04331
-1.03135
-0.735553
-0.975916
-1.15716
-1.27318
-1.33647
-1.3604
-1.35765
-1.33869
-1.31086
-1.27889
-1.24567
-1.21284
-1.1813
-1.15154
-1.12383
-1.09841
-1.0757
-1.05598
-1.0416
-1.03049
-0.728626
-0.890189
-1.03015
-1.13682
-1.20938
-1.25163
-1.26957
-1.26977
-1.25798
-1.23869
-1.21519
-1.18971
-1.16372
-1.13818
-1.11373
-1.09088
-1.07024
-1.0522
-1.03918
-1.02916
-0.721167
-0.834685
-0.941943
-1.03395
-1.10584
-1.15642
-1.18728
-1.20162
-1.20317
-1.19545
-1.18146
-1.16356
-1.14352
-1.12263
-1.10183
-1.08187
-1.06355
-1.04739
-1.03589
-1.02719
-0.711528
-0.795835
-0.879404
-0.956599
-1.02274
-1.07503
-1.11268
-1.1365
-1.14833
-1.15046
-1.14523
-1.13474
-1.1208
-1.10483
-1.08798
-1.07119
-1.05541
-1.04133
-1.03151
-1.02432
-0.700482
-0.765719
-0.832194
-0.896583
-0.955387
-1.00578
-1.04602
-1.07553
-1.09473
-1.10478
-1.10719
-1.10362
-1.09565
-1.0847
-1.07199
-1.0586
-1.04557
-1.03373
-1.02576
-1.0202
-0.689419
-0.741228
-0.794978
-0.84874
-0.900122
-0.946798
-0.986885
-1.01917
-1.0432
-1.0592
-1.06794
-1.07052
-1.06817
-1.06216
-1.05367
-1.0438
-1.03367
-1.0242
-1.01822
-1.01431
-0.679283
-0.721099
-0.765046
-0.810006
-0.854417
-0.896545
-0.934732
-0.967616
-0.99429
-1.01438
-1.02803
-1.03579
-1.03849
-1.03712
-1.03275
-1.02644
-1.01927
-1.01227
-1.00837
-1.00599
-0.670814
-0.704855
-0.740982
-0.778559
-0.816591
-0.853862
-0.889062
-0.920938
-0.94845
-0.970894
-0.987967
-0.999763
-1.00671
-1.00951
-1.00898
-1.00609
-1.00185
-0.997311
-0.995491
-0.994352
-0.66462
-0.692395
-0.722093
-0.753365
-0.785596
-0.817969
-0.849519
-0.879218
-0.906082
-0.929294
-0.948299
-0.962859
-0.97306
-0.979273
-0.982095
-0.982301
-0.980787
-0.978576
-0.978702
-0.978316
-0.661181
-0.683772
-0.708059
-0.733863
-0.760816
-0.788387
-0.815904
-0.842584
-0.867598
-0.890165
-0.909638
-0.925586
-0.937839
-0.946498
-0.951913
-0.954653
-0.95544
-0.955229
-0.956964
-0.956622
-0.660942
-0.679154
-0.698798
-0.719792
-0.741921
-0.764854
-0.788138
-0.811211
-0.833429
-0.854124
-0.872677
-0.888587
-0.901536
-0.911429
-0.918405
-0.922824
-0.925215
-0.926419
-0.929165
-0.927923
-0.664144
-0.678598
-0.694211
-0.710943
-0.728668
-0.747178
-0.766174
-0.785264
-0.803974
-0.82178
-0.838154
-0.85262
-0.864815
-0.874536
-0.881773
-0.886711
-0.88969
-0.891418
-0.894262
-0.890953
-0.671711
-0.682858
-0.69486
-0.707701
-0.721304
-0.735534
-0.750194
-0.765012
-0.77965
-0.793718
-0.806799
-0.818493
-0.828464
-0.836487
-0.842477
-0.846505
-0.848759
-0.849817
-0.85155
-0.844846
-0.682479
-0.690746
-0.699614
-0.709042
-0.718954
-0.729238
-0.739736
-0.750242
-0.760504
-0.770234
-0.779128
-0.78689
-0.793269
-0.798088
-0.801271
-0.802842
-0.80289
-0.801887
-0.801095
-0.789614
-0.70236
-0.707721
-0.713279
-0.719028
-0.724906
-0.730822
-0.736665
-0.742287
-0.747512
-0.752137
-0.755945
-0.758725
-0.760301
-0.760551
-0.759429
-0.756946
-0.753138
-0.748406
-0.743354
-0.725542
-0.718545
-0.721893
-0.725326
-0.728696
-0.731881
-0.734743
-0.737112
-0.73879
-0.739568
-0.739235
-0.737598
-0.734509
-0.729886
-0.723733
-0.716144
-0.707262
-0.697244
-0.686539
-0.675011
-0.649325
-0.770224
-0.76911
-0.76721
-0.764602
-0.761166
-0.756755
-0.751236
-0.744491
-0.736415
-0.726931
-0.716008
-0.70368
-0.690071
-0.675407
-0.660006
-0.644236
-0.628452
-0.612934
-0.595532
-0.563192
)
;

boundaryField
{
    zeroGradPlanes
    {
        type            zeroGradient;
    }
    inlet
    {
        type            zeroGradient;
    }
    plate
    {
        type            zeroGradient;
    }
    frontAndBack
    {
        type            empty;
    }
}


// ************************************************************************* //
