/*--------------------------------*- C++ -*----------------------------------*\
| =========                 |                                                 |
| \\      /  F ield         | OpenFOAM: The Open Source CFD Toolbox           |
|  \\    /   O peration     | Version:  v1906                                 |
|   \\  /    A nd           | Web:      www.OpenFOAM.com                      |
|    \\/     M anipulation  |                                                 |
\*---------------------------------------------------------------------------*/
FoamFile
{
    version     2.0;
    format      ascii;
    class       surfaceScalarField;
    location    "0.4";
    object      phi;
}
// * * * * * * * * * * * * * * * * * * * * * * * * * * * * * * * * * * * * * //

dimensions      [0 3 -1 0 0 0 0];
oriented        oriented;


internalField   nonuniform List<scalar> 
1540
(
1.97821e-05
2.48528e-06
1.96317e-05
7.6899e-06
1.94779e-05
1.21501e-05
1.93264e-05
1.58684e-05
1.91784e-05
1.89508e-05
1.90337e-05
2.15144e-05
1.88915e-05
2.36619e-05
1.87506e-05
2.54727e-05
1.86093e-05
2.69988e-05
1.84655e-05
2.82639e-05
1.83163e-05
2.92632e-05
1.81575e-05
2.99661e-05
1.79829e-05
3.03194e-05
1.77827e-05
3.02514e-05
1.75412e-05
2.9674e-05
1.72349e-05
2.84828e-05
1.68193e-05
2.65641e-05
1.61587e-05
2.38085e-05
1.4942e-05
1.99947e-05
1.43963e-05
1.30545e-05
2.1535e-05
2.61004e-06
2.1373e-05
7.85193e-06
2.12067e-05
1.23165e-05
2.10436e-05
1.60314e-05
2.0885e-05
1.91094e-05
2.07308e-05
2.16686e-05
2.05804e-05
2.38123e-05
2.0433e-05
2.562e-05
2.02878e-05
2.71441e-05
2.01436e-05
2.8408e-05
1.99994e-05
2.94074e-05
1.98537e-05
3.01118e-05
1.97053e-05
3.04679e-05
1.95528e-05
3.04039e-05
1.93947e-05
2.98321e-05
1.92277e-05
2.86497e-05
1.905e-05
2.67418e-05
1.88624e-05
2.39962e-05
1.85959e-05
2.02612e-05
1.52589e-05
1.77333e-05
2.34471e-05
2.73748e-06
2.32751e-05
8.02386e-06
2.3098e-05
1.24936e-05
2.29252e-05
1.62042e-05
2.27587e-05
1.92759e-05
2.2599e-05
2.18283e-05
2.24463e-05
2.3965e-05
2.23009e-05
2.57654e-05
2.21639e-05
2.72811e-05
2.20371e-05
2.85348e-05
2.19236e-05
2.95209e-05
2.18286e-05
3.02068e-05
2.17603e-05
3.05363e-05
2.17306e-05
3.04335e-05
2.17554e-05
2.98073e-05
2.18498e-05
2.85553e-05
2.20151e-05
2.65765e-05
2.22101e-05
2.38012e-05
2.22627e-05
2.02086e-05
1.58792e-05
2.16425e-05
2.55322e-05
2.86375e-06
2.53535e-05
8.2025e-06
2.51684e-05
1.26788e-05
2.49892e-05
1.63834e-05
2.48193e-05
1.94459e-05
2.46601e-05
2.19874e-05
2.45134e-05
2.41117e-05
2.43818e-05
2.5897e-05
2.42693e-05
2.73935e-05
2.41823e-05
2.86218e-05
2.41303e-05
2.95729e-05
2.41266e-05
3.02105e-05
2.41887e-05
3.04741e-05
2.43379e-05
3.02844e-05
2.45935e-05
2.95517e-05
2.49606e-05
2.81883e-05
2.54056e-05
2.61314e-05
2.58268e-05
2.338e-05
2.60108e-05
2.00246e-05
1.62869e-05
2.56031e-05
2.78053e-05
2.98505e-06
2.76246e-05
8.38324e-06
2.7436e-05
1.28673e-05
2.72557e-05
1.65637e-05
2.70889e-05
1.96127e-05
2.69389e-05
2.21374e-05
2.68096e-05
2.4241e-05
2.67068e-05
2.59998e-05
2.66389e-05
2.74615e-05
2.66177e-05
2.86429e-05
2.66595e-05
2.95312e-05
2.67843e-05
3.00857e-05
2.70148e-05
3.02436e-05
2.73711e-05
2.99281e-05
2.78608e-05
2.9062e-05
2.84619e-05
2.75871e-05
2.91029e-05
2.54904e-05
2.96506e-05
2.28324e-05
2.99125e-05
1.97627e-05
1.65205e-05
2.96789e-05
3.02827e-05
3.09759e-06
3.0106e-05
8.56002e-06
2.99208e-05
1.30525e-05
2.97469e-05
1.67376e-05
2.95923e-05
1.97672e-05
2.94629e-05
2.22669e-05
2.93655e-05
2.43384e-05
2.93098e-05
2.60555e-05
2.93091e-05
2.74622e-05
2.93808e-05
2.85712e-05
2.95462e-05
2.93658e-05
2.98283e-05
2.98036e-05
3.02476e-05
2.98243e-05
3.08137e-05
2.9362e-05
3.15129e-05
2.83627e-05
3.22948e-05
2.68052e-05
3.30635e-05
2.47217e-05
3.36839e-05
2.2212e-05
3.4007e-05
1.94396e-05
1.661e-05
3.39175e-05
3.29822e-05
3.1976e-06
3.28169e-05
8.72531e-06
3.26442e-05
1.32252e-05
3.2487e-05
1.68948e-05
3.23566e-05
1.98976e-05
3.2262e-05
2.23615e-05
3.22137e-05
2.43866e-05
3.22256e-05
2.60436e-05
3.23156e-05
2.73723e-05
3.25049e-05
2.83818e-05
3.28169e-05
2.90539e-05
3.32723e-05
2.93482e-05
3.38826e-05
2.9214e-05
3.46405e-05
2.86041e-05
3.55101e-05
2.74931e-05
3.64206e-05
2.58947e-05
3.72693e-05
2.3873e-05
3.79386e-05
2.15427e-05
3.83239e-05
1.90543e-05
1.65678e-05
3.83661e-05
3.59227e-05
3.28146e-06
3.57778e-05
8.87017e-06
3.56291e-05
1.3374e-05
3.55017e-05
1.70222e-05
3.54104e-05
1.99889e-05
3.53676e-05
2.24043e-05
3.53876e-05
2.43666e-05
3.54881e-05
2.59431e-05
3.56902e-05
2.71702e-05
3.60166e-05
2.80554e-05
3.64885e-05
2.8582e-05
3.7119e-05
2.87177e-05
3.79063e-05
2.84267e-05
3.88255e-05
2.76849e-05
3.98234e-05
2.64952e-05
4.08204e-05
2.48977e-05
4.17208e-05
2.29727e-05
4.24314e-05
2.08321e-05
4.28833e-05
1.86023e-05
1.64034e-05
4.30477e-05
3.91252e-05
3.34574e-06
3.9011e-05
8.98445e-06
3.88997e-05
1.34852e-05
3.88179e-05
1.71041e-05
3.87831e-05
2.00237e-05
3.8811e-05
2.23763e-05
3.89192e-05
2.42584e-05
3.9128e-05
2.57343e-05
3.94595e-05
2.68387e-05
3.99347e-05
2.75803e-05
4.05683e-05
2.79484e-05
4.1363e-05
2.7923e-05
4.23025e-05
2.74871e-05
4.33476e-05
2.66399e-05
4.44359e-05
2.54069e-05
4.5489e-05
2.38446e-05
4.64254e-05
2.20363e-05
4.71755e-05
2.0082e-05
4.76952e-05
1.80826e-05
1.61268e-05
4.79718e-05
4.26124e-05
3.38712e-06
4.25398e-05
9.05704e-06
4.24817e-05
1.35433e-05
4.24634e-05
1.71223e-05
4.25044e-05
1.99826e-05
4.26228e-05
2.2258e-05
4.28382e-05
2.40431e-05
4.31715e-05
2.5401e-05
4.36433e-05
2.63669e-05
4.42695e-05
2.6954e-05
4.50563e-05
2.71616e-05
4.59945e-05
2.69848e-05
4.70559e-05
2.64258e-05
4.81921e-05
2.55036e-05
4.93394e-05
2.42596e-05
5.04273e-05
2.27567e-05
5.13901e-05
2.10736e-05
5.21777e-05
1.92943e-05
5.27626e-05
1.74977e-05
1.57492e-05
5.31403e-05
4.6409e-05
3.40242e-06
4.63898e-05
9.07629e-06
4.64014e-05
1.35317e-05
4.64661e-05
1.70576e-05
4.6603e-05
1.98457e-05
4.68309e-05
2.203e-05
4.71697e-05
2.37044e-05
4.76386e-05
2.4932e-05
4.82541e-05
2.57514e-05
4.90249e-05
2.61833e-05
4.99475e-05
2.6239e-05
5.10027e-05
2.59296e-05
5.21539e-05
2.52746e-05
5.33499e-05
2.43076e-05
5.45311e-05
2.30784e-05
5.56378e-05
2.165e-05
5.66193e-05
2.0092e-05
5.74405e-05
1.84731e-05
5.80841e-05
1.68541e-05
1.52835e-05
5.85498e-05
5.0542e-05
3.38854e-06
5.05879e-05
9.03039e-06
5.06865e-05
1.34332e-05
5.08537e-05
1.68904e-05
5.11059e-05
1.95936e-05
5.14602e-05
2.16757e-05
5.19343e-05
2.32304e-05
5.25436e-05
2.43227e-05
5.32984e-05
2.49965e-05
5.41996e-05
2.52821e-05
5.52349e-05
2.52037e-05
5.63777e-05
2.47868e-05
5.75881e-05
2.40642e-05
5.88166e-05
2.30791e-05
6.0011e-05
2.1884e-05
6.11232e-05
2.05377e-05
6.21153e-05
1.90999e-05
6.29627e-05
1.76257e-05
6.36549e-05
1.61619e-05
1.47449e-05
6.41935e-05
5.50409e-05
3.34238e-06
5.51636e-05
8.9077e-06
5.5366e-05
1.32308e-05
5.56543e-05
1.66021e-05
5.60389e-05
1.9209e-05
5.65326e-05
2.1182e-05
5.71484e-05
2.26146e-05
5.78961e-05
2.35749e-05
5.8779e-05
2.41136e-05
5.97905e-05
2.42707e-05
6.09119e-05
2.40822e-05
6.21131e-05
2.35857e-05
6.33543e-05
2.2823e-05
6.45915e-05
2.18419e-05
6.57812e-05
2.06943e-05
6.68862e-05
1.94328e-05
6.78785e-05
1.81076e-05
6.87415e-05
1.67627e-05
6.94689e-05
1.54345e-05
1.41505e-05
7.00632e-05
5.9938e-05
3.26061e-06
6.0149e-05
8.69671e-06
6.04712e-05
1.29085e-05
6.08972e-05
1.61761e-05
6.1428e-05
1.86782e-05
6.20691e-05
2.05408e-05
6.2827e-05
2.18567e-05
6.37046e-05
2.26973e-05
6.46987e-05
2.31195e-05
6.57967e-05
2.31727e-05
6.69764e-05
2.29025e-05
6.82074e-05
2.23547e-05
6.94537e-05
2.15767e-05
7.0678e-05
2.06176e-05
7.18461e-05
1.95262e-05
7.29299e-05
1.8349e-05
7.39097e-05
1.71278e-05
7.47743e-05
1.58981e-05
7.55205e-05
1.46884e-05
1.352e-05
7.6151e-05
6.5269e-05
3.13907e-06
6.55803e-05
8.38537e-06
6.60377e-05
1.24512e-05
6.66156e-05
1.55982e-05
6.73022e-05
1.79916e-05
6.80935e-05
1.97495e-05
6.89879e-05
2.09623e-05
6.99816e-05
2.17035e-05
7.10657e-05
2.20355e-05
7.22241e-05
2.20143e-05
7.34341e-05
2.16925e-05
7.46677e-05
2.1121e-05
7.58947e-05
2.03498e-05
7.70854e-05
1.94269e-05
7.82141e-05
1.83974e-05
7.92608e-05
1.73022e-05
8.02122e-05
1.61764e-05
8.10612e-05
1.50491e-05
8.18066e-05
1.39431e-05
1.28751e-05
8.24515e-05
7.1074e-05
2.97142e-06
7.15003e-05
7.95908e-06
7.21088e-05
1.18427e-05
7.2851e-05
1.48559e-05
7.36994e-05
1.71432e-05
7.46389e-05
1.88101e-05
7.56592e-05
1.9942e-05
7.67508e-05
2.0612e-05
7.79007e-05
2.08855e-05
7.90923e-05
2.08227e-05
8.03045e-05
2.04802e-05
8.15143e-05
1.99113e-05
8.2698e-05
1.91661e-05
8.38338e-05
1.8291e-05
8.49039e-05
1.73274e-05
8.58948e-05
1.63113e-05
8.67983e-05
1.52729e-05
8.76108e-05
1.42367e-05
8.83325e-05
1.32213e-05
1.22407e-05
8.8967e-05
7.73995e-05
2.74631e-06
7.79615e-05
7.397e-06
7.87399e-05
1.10643e-05
7.96585e-05
1.39374e-05
8.06722e-05
1.61295e-05
8.17543e-05
1.7728e-05
8.28869e-05
1.88094e-05
8.40555e-05
1.94434e-05
8.52458e-05
1.96953e-05
8.64421e-05
1.96264e-05
8.76276e-05
1.92946e-05
8.87854e-05
1.87535e-05
8.98992e-05
1.80523e-05
9.09554e-05
1.72349e-05
9.1943e-05
1.63398e-05
9.28548e-05
1.53995e-05
9.3687e-05
1.44407e-05
9.44389e-05
1.34848e-05
9.5112e-05
1.25481e-05
1.16425e-05
9.57102e-05
8.43041e-05
2.43866e-06
8.5033e-05
6.66808e-06
8.60032e-05
1.00941e-05
8.71087e-05
1.28319e-05
8.82882e-05
1.495e-05
8.95047e-05
1.65115e-05
9.07345e-05
1.75795e-05
9.19604e-05
1.82175e-05
9.31683e-05
1.84874e-05
9.43456e-05
1.84492e-05
9.54806e-05
1.81596e-05
9.65629e-05
1.76712e-05
9.75836e-05
1.70315e-05
9.85361e-05
1.62824e-05
9.9416e-05
1.54599e-05
0.000100221
1.45941e-05
0.000100952
1.37096e-05
0.000101611
1.28259e-05
0.000102202
1.19579e-05
1.11165e-05
0.000102727
9.18697e-05
1.99052e-06
9.28062e-05
5.73158e-06
9.39884e-05
8.91196e-06
9.52863e-05
1.15339e-05
9.66268e-05
1.36095e-05
9.79652e-05
1.5173e-05
9.92732e-05
1.62716e-05
0.000100532
1.69586e-05
0.000101729
1.72899e-05
0.000102858
1.73211e-05
0.000103912
1.71057e-05
0.000104889
1.66938e-05
0.000105789
1.61312e-05
0.000106613
1.54582e-05
0.000107364
1.47096e-05
0.000108043
1.39144e-05
0.000108656
1.30967e-05
0.000109207
1.22752e-05
0.0001097
1.14646e-05
1.06758e-05
0.000110141
0.000100142
0.000101314
0.000102713
0.000104209
0.000105724
0.000107206
0.000108619
0.000109942
0.00011116
0.000112266
0.000113259
0.000114143
0.000114924
0.000115609
0.000116207
0.000116729
0.000117182
0.000117575
0.000117917
0.000118214
7.02671e-06
6.02777e-06
4.03504e-06
2.99168e-06
2.58385e-06
1.45118e-06
1.84758e-06
7.36272e-07
1.43858e-06
4.08997e-07
1.18328e-06
2.55305e-07
1.00599e-06
1.77289e-07
8.7343e-07
1.32561e-07
7.69668e-07
1.03762e-07
6.86029e-07
8.36391e-08
6.17253e-07
6.87754e-08
5.59965e-07
5.72884e-08
5.11969e-07
4.79963e-08
4.71896e-07
4.00728e-08
4.39023e-07
3.28729e-08
4.13193e-07
2.58303e-08
3.94698e-07
1.84945e-08
3.84219e-07
1.04793e-08
3.80855e-07
3.36399e-09
-1.72995e-09
1.452e-05
9.24103e-06
1.11664e-05
6.34527e-06
8.49536e-06
4.12225e-06
6.57859e-06
2.65304e-06
5.24666e-06
1.74093e-06
4.31278e-06
1.18919e-06
3.63737e-06
8.5269e-07
3.13057e-06
6.39368e-07
2.73726e-06
4.97068e-07
2.42358e-06
3.9732e-07
2.16816e-06
3.24198e-07
1.95716e-06
2.68289e-07
1.78152e-06
2.23628e-07
1.63549e-06
1.8611e-07
1.51574e-06
1.52623e-07
1.42099e-06
1.20576e-07
1.35166e-06
8.78269e-08
1.30887e-06
5.32642e-08
1.29089e-06
2.13447e-08
1.04244e-09
1.98143e-05
1.10692e-05
1.71849e-05
8.97465e-06
1.44254e-05
6.88178e-06
1.19605e-05
5.11789e-06
9.93716e-06
3.76431e-06
8.34246e-06
2.78389e-06
7.10086e-06
2.09429e-06
6.12906e-06
1.61116e-06
5.35796e-06
1.26817e-06
4.73626e-06
1.01902e-06
4.22761e-06
8.32848e-07
3.80671e-06
6.89186e-07
3.45621e-06
5.74125e-07
3.16461e-06
4.77714e-07
2.92495e-06
3.9228e-07
2.73406e-06
3.11468e-07
2.59194e-06
2.29946e-07
2.49977e-06
1.45439e-07
2.45514e-06
6.59691e-08
1.60077e-08
2.44415e-05
1.22308e-05
2.2501e-05
1.09152e-05
2.00912e-05
9.29154e-06
1.75748e-05
7.63429e-06
1.52116e-05
6.12753e-06
1.31344e-05
4.86112e-06
1.13777e-05
3.85095e-06
9.91988e-06
3.06901e-06
8.7169e-06
2.47115e-06
7.72238e-06
2.01354e-06
6.8959e-06
1.65933e-06
6.20537e-06
1.37971e-06
5.62677e-06
1.15272e-06
5.14315e-06
9.61334e-07
4.74368e-06
7.91753e-07
4.42293e-06
6.3222e-07
4.18016e-06
4.72715e-07
4.01658e-06
3.09022e-07
3.92907e-06
1.53473e-07
5.2671e-08
2.89111e-05
1.29985e-05
2.75093e-05
1.2317e-05
2.5559e-05
1.12418e-05
2.32676e-05
9.92568e-06
2.08644e-05
8.53076e-06
1.85356e-05
7.18989e-06
1.63989e-05
5.98765e-06
1.45074e-05
4.96053e-06
1.28687e-05
4.10982e-06
1.14655e-05
3.41681e-06
1.02701e-05
2.8547e-06
9.25409e-06
2.39571e-06
8.39249e-06
2.01432e-06
7.66577e-06
1.68805e-06
7.06057e-06
1.39695e-06
6.56981e-06
1.12299e-06
6.19224e-06
8.50287e-07
5.92949e-06
5.71765e-07
5.77821e-06
3.04756e-07
1.23807e-07
3.34256e-05
1.34905e-05
3.24387e-05
1.33039e-05
3.09355e-05
1.27451e-05
2.89945e-05
1.18667e-05
2.67608e-05
1.07644e-05
2.44007e-05
9.55002e-06
2.20614e-05
8.32694e-06
1.98497e-05
7.17228e-06
1.78278e-05
6.1317e-06
1.60217e-05
5.22291e-06
1.44329e-05
4.44348e-06
1.30498e-05
3.77885e-06
1.18557e-05
3.2084e-06
1.08346e-05
2.70914e-06
9.97427e-06
2.2573e-06
9.26801e-06
1.82925e-06
8.71542e-06
1.40288e-06
8.31969e-06
9.67488e-07
8.07846e-06
5.45989e-07
2.46231e-07
3.80884e-05
1.37682e-05
3.74275e-05
1.39648e-05
3.63203e-05
1.38522e-05
3.47652e-05
1.34218e-05
3.28248e-05
1.27048e-05
3.0609e-05
1.17658e-05
2.82485e-05
1.06874e-05
2.58673e-05
9.55344e-06
2.35651e-05
8.43394e-06
2.141e-05
7.37804e-06
1.94409e-05
6.41257e-06
1.76745e-05
5.54526e-06
1.61133e-05
4.76954e-06
1.47534e-05
4.0691e-06
1.35895e-05
3.42118e-06
1.26197e-05
2.79909e-06
1.18471e-05
2.17547e-06
1.12788e-05
1.53574e-06
1.09159e-05
9.08918e-07
4.41589e-07
4.29473e-05
1.38686e-05
4.25517e-05
1.43604e-05
4.17869e-05
1.4617e-05
4.06095e-05
1.45993e-05
3.90209e-05
1.42934e-05
3.70706e-05
1.37161e-05
3.48464e-05
1.29116e-05
3.24569e-05
1.1943e-05
3.00115e-05
1.08793e-05
2.76058e-05
9.78373e-06
2.53129e-05
8.70545e-06
2.31827e-05
7.67549e-06
2.12454e-05
6.70682e-06
1.9518e-05
5.79656e-06
1.80102e-05
4.92893e-06
1.67309e-05
4.07843e-06
1.56915e-05
3.21486e-06
1.49068e-05
2.32039e-06
1.43851e-05
1.43063e-06
7.37041e-07
4.80228e-05
1.38176e-05
4.78494e-05
1.45337e-05
4.73799e-05
1.50866e-05
4.65532e-05
1.5426e-05
4.53333e-05
1.55133e-05
4.37201e-05
1.53293e-05
4.17523e-05
1.48794e-05
3.95027e-05
1.41926e-05
3.70653e-05
1.33167e-05
3.45406e-05
1.23085e-05
3.20223e-05
1.12237e-05
2.95891e-05
1.01087e-05
2.73016e-05
8.99433e-06
2.52041e-05
7.89409e-06
2.33292e-05
6.80383e-06
2.17037e-05
5.70393e-06
2.03538e-05
4.56473e-06
1.93075e-05
3.36667e-06
1.85858e-05
2.15238e-06
1.16558e-06
5.33216e-05
1.36362e-05
5.33368e-05
1.45185e-05
5.31216e-05
1.53017e-05
5.26115e-05
1.59361e-05
5.17513e-05
1.63734e-05
5.05073e-05
1.65734e-05
4.88756e-05
1.65111e-05
4.68865e-05
1.61817e-05
4.46017e-05
1.56016e-05
4.21053e-05
1.48048e-05
3.94926e-05
1.38365e-05
3.68578e-05
1.27434e-05
3.42867e-05
1.15654e-05
3.18519e-05
1.03289e-05
2.96137e-05
9.04202e-06
2.76238e-05
7.69385e-06
2.59301e-05
6.2584e-06
2.45806e-05
4.71619e-06
2.36159e-05
3.11711e-06
1.76567e-06
5.88421e-05
1.33439e-05
5.90167e-05
1.4344e-05
5.9019e-05
1.52994e-05
5.87881e-05
1.6167e-05
5.82629e-05
1.68986e-05
5.73907e-05
1.74456e-05
5.61368e-05
1.7765e-05
5.44931e-05
1.78254e-05
5.24826e-05
1.7612e-05
5.01587e-05
1.71287e-05
4.75991e-05
1.63961e-05
4.48965e-05
1.5446e-05
4.21485e-05
1.43134e-05
3.945e-05
1.30274e-05
3.68885e-05
1.16035e-05
3.45443e-05
1.00381e-05
3.2493e-05
8.30967e-06
3.08094e-05
6.39979e-06
2.95615e-05
4.36498e-06
2.57966e-06
6.45777e-05
1.29598e-05
6.48843e-05
1.40374e-05
6.50689e-05
1.51148e-05
6.50781e-05
1.61577e-05
6.48528e-05
1.71239e-05
6.43329e-05
1.79655e-05
6.34657e-05
1.86322e-05
6.22144e-05
1.90767e-05
6.05663e-05
1.92601e-05
5.8538e-05
1.91569e-05
5.61768e-05
1.87573e-05
5.35564e-05
1.80665e-05
5.07698e-05
1.71e-05
4.7921e-05
1.58762e-05
4.51175e-05
1.4407e-05
4.24662e-05
1.26893e-05
4.00729e-05
1.0703e-05
3.80442e-05
8.42856e-06
3.64821e-05
5.92701e-06
3.65052e-06
7.0519e-05
1.2504e-05
7.09303e-05
1.3626e-05
7.12624e-05
1.47828e-05
7.14708e-05
1.59493e-05
7.15028e-05
1.70919e-05
7.12996e-05
1.81688e-05
7.08009e-05
1.91308e-05
6.99528e-05
1.99248e-05
6.87153e-05
2.04976e-05
6.70713e-05
2.0801e-05
6.50321e-05
2.07965e-05
6.26405e-05
2.04581e-05
5.99688e-05
1.97718e-05
5.71136e-05
1.87315e-05
5.41887e-05
1.73319e-05
5.1319e-05
1.5559e-05
4.86369e-05
1.33851e-05
4.62811e-05
1.07844e-05
4.43914e-05
7.81676e-06
5.01654e-06
7.66568e-05
1.19981e-05
7.71449e-05
1.3138e-05
7.75887e-05
1.4339e-05
7.79533e-05
1.55846e-05
7.81946e-05
1.68507e-05
7.82597e-05
1.81037e-05
7.80895e-05
1.9301e-05
7.76231e-05
2.03912e-05
7.68043e-05
2.13164e-05
7.55901e-05
2.20151e-05
7.39591e-05
2.24275e-05
7.19186e-05
2.24986e-05
6.95089e-05
2.21814e-05
6.68037e-05
2.14368e-05
6.39064e-05
2.02292e-05
6.09454e-05
1.852e-05
5.80687e-05
1.62618e-05
5.54408e-05
1.34122e-05
5.32361e-05
1.00214e-05
6.70393e-06
8.29846e-05
1.1465e-05
8.352e-05
1.26026e-05
8.40387e-05
1.38202e-05
8.45144e-05
1.5109e-05
8.49121e-05
1.64529e-05
8.51879e-05
1.78279e-05
8.52889e-05
1.92001e-05
8.51555e-05
2.05246e-05
8.47258e-05
2.17461e-05
8.39416e-05
2.27993e-05
8.27571e-05
2.36121e-05
8.11475e-05
2.41081e-05
7.91179e-05
2.42111e-05
7.67084e-05
2.38463e-05
7.39968e-05
2.29408e-05
7.10972e-05
2.14195e-05
6.81567e-05
1.92023e-05
6.53513e-05
1.62176e-05
6.28783e-05
1.24945e-05
8.71812e-06
8.95017e-05
1.09303e-05
9.00528e-05
1.20515e-05
9.06073e-05
1.32658e-05
9.11463e-05
1.45699e-05
9.1644e-05
1.59553e-05
9.20657e-05
1.74062e-05
9.23677e-05
1.8898e-05
9.24975e-05
2.03948e-05
9.23954e-05
2.18481e-05
9.19989e-05
2.31959e-05
9.12485e-05
2.43624e-05
9.00968e-05
2.52598e-05
8.85174e-05
2.57904e-05
8.65149e-05
2.58489e-05
8.41313e-05
2.53243e-05
8.1451e-05
2.40998e-05
7.86002e-05
2.20531e-05
7.57459e-05
1.9072e-05
7.30874e-05
1.51529e-05
1.1036e-05
9.62213e-05
1.04192e-05
9.67562e-05
1.15165e-05
9.73067e-05
1.27153e-05
9.78601e-05
1.40165e-05
9.83981e-05
1.54173e-05
9.88955e-05
1.69089e-05
9.93186e-05
1.84749e-05
9.96251e-05
2.00883e-05
9.97638e-05
2.17095e-05
9.96763e-05
2.32834e-05
9.93009e-05
2.47378e-05
9.85789e-05
2.59818e-05
9.74628e-05
2.69065e-05
9.59262e-05
2.73854e-05
9.39741e-05
2.72764e-05
9.16505e-05
2.64234e-05
8.90437e-05
2.46598e-05
8.62877e-05
2.1828e-05
8.35575e-05
1.78831e-05
1.3602e-05
0.000103179
9.96766e-06
0.000103657
1.10387e-05
0.000104157
1.22155e-05
0.000104671
1.35026e-05
0.000105187
1.4901e-05
0.000105688
1.64074e-05
0.000106151
1.80119e-05
0.000106544
1.96955e-05
0.000106827
2.1427e-05
0.00010695
2.31598e-05
0.000106859
2.48285e-05
0.000106495
2.63458e-05
0.000105802
2.76003e-05
0.000104732
2.84551e-05
0.00010326
2.87487e-05
0.000101387
2.8296e-05
9.91526e-05
2.68944e-05
9.66361e-05
2.43445e-05
9.39601e-05
2.05591e-05
1.63294e-05
0.000110521
9.58746e-06
0.000110923
1.06372e-05
0.000111342
1.17959e-05
0.000111776
1.30693e-05
0.000112216
1.4461e-05
0.000112652
1.59709e-05
0.000113071
1.75934e-05
0.000113451
1.93149e-05
0.000113768
2.11108e-05
0.000113985
2.2942e-05
0.000114063
2.47512e-05
0.00011395
2.6458e-05
0.000113595
2.79558e-05
0.000112942
2.91084e-05
0.000111942
2.97486e-05
0.000110558
2.96797e-05
0.000108771
2.86809e-05
0.00010659
2.65257e-05
0.000104068
2.30809e-05
1.91236e-05
0.000118464
0.000118733
0.000119022
0.000119331
0.000119657
0.000119998
0.000120346
0.00012069
0.000121014
0.000121296
0.000121503
0.000121595
0.000121522
0.000121224
0.000120636
0.000119685
0.000118298
0.000116397
0.000113903
)
;

boundaryField
{
    zeroGradPlanes
    {
        type            calculated;
        value           nonuniform List<scalar> 
80
(
-2.36678e-06
-7.53948e-06
-1.19963e-05
-1.57168e-05
-1.88028e-05
-2.13697e-05
-2.35197e-05
-2.53317e-05
-2.68576e-05
-2.81201e-05
-2.9114e-05
-2.98073e-05
-3.01448e-05
-3.00511e-05
-2.94325e-05
-2.81765e-05
-2.61485e-05
-2.3148e-05
-1.8778e-05
-1.25088e-05
3.82585e-07
1.28812e-06
2.44018e-06
3.89241e-06
5.70707e-06
7.95604e-06
1.07205e-05
1.40897e-05
1.81572e-05
2.30158e-05
2.87476e-05
3.54113e-05
4.30253e-05
5.15488e-05
6.08641e-05
7.07696e-05
8.09915e-05
9.12327e-05
0.000101274
0.000110728
1.35148e-06
4.55984e-06
7.5129e-06
1.00377e-05
1.20947e-05
1.36914e-05
1.4858e-05
1.56361e-05
1.60722e-05
1.62149e-05
1.61121e-05
1.58099e-05
1.53507e-05
1.47732e-05
1.41111e-05
1.33932e-05
1.26435e-05
1.18816e-05
1.11227e-05
1.03787e-05
9.33739e-06
1.03686e-05
1.1507e-05
1.27606e-05
1.41344e-05
1.56303e-05
1.72456e-05
1.89707e-05
2.07864e-05
2.26606e-05
2.4544e-05
2.63658e-05
2.80289e-05
2.9406e-05
3.03372e-05
3.06303e-05
3.00677e-05
2.84273e-05
2.5575e-05
2.22987e-05
)
;
    }
    inlet
    {
        type            calculated;
        value           nonuniform List<scalar> 
20
(
-1.99006e-05
-2.16598e-05
-2.35745e-05
-2.56584e-05
-2.79266e-05
-3.03953e-05
-3.30822e-05
-3.60066e-05
-3.91895e-05
-4.26538e-05
-4.64243e-05
-5.05282e-05
-5.49948e-05
-5.98562e-05
-6.51474e-05
-7.09063e-05
-7.71743e-05
-8.39964e-05
-9.14216e-05
-9.95031e-05
)
;
    }
    plate
    {
        type            calculated;
        value           uniform 0;
    }
    frontAndBack
    {
        type            empty;
        value           nonuniform 0();
    }
}


// ************************************************************************* //
