/*--------------------------------*- C++ -*----------------------------------*\
| =========                 |                                                 |
| \\      /  F ield         | OpenFOAM: The Open Source CFD Toolbox           |
|  \\    /   O peration     | Version:  v1906                                 |
|   \\  /    A nd           | Web:      www.OpenFOAM.com                      |
|    \\/     M anipulation  |                                                 |
\*---------------------------------------------------------------------------*/
FoamFile
{
    version     2.0;
    format      ascii;
    class       volVectorField;
    location    "0.4";
    object      U;
}
// * * * * * * * * * * * * * * * * * * * * * * * * * * * * * * * * * * * * * //

dimensions      [0 1 -1 0 0 0 0];


internalField   nonuniform List<vector> 
800
(
(0.99785 0.024319 0)
(0.990624 0.08319 0)
(0.982747 0.143618 0)
(0.975069 0.20451 0)
(0.967528 0.266087 0)
(0.960178 0.328988 0)
(0.952976 0.393971 0)
(0.945873 0.461737 0)
(0.938797 0.532755 0)
(0.931658 0.607072 0)
(0.92433 0.6841 0)
(0.916641 0.762385 0)
(0.908335 0.839367 0)
(0.899031 0.911111 0)
(0.888238 0.97195 0)
(0.874936 1.01396 0)
(0.855908 1.02638 0)
(0.829105 0.994062 0)
(0.810298 0.889946 0)
(0.784263 0.65982 0)
(0.997943 0.0254387 0)
(0.990857 0.084754 0)
(0.983036 0.145363 0)
(0.97543 0.206378 0)
(0.967986 0.268072 0)
(0.960764 0.331099 0)
(0.953736 0.396228 0)
(0.946867 0.464168 0)
(0.940119 0.535402 0)
(0.933446 0.609991 0)
(0.926798 0.687374 0)
(0.920118 0.766136 0)
(0.913342 0.843779 0)
(0.906404 0.91647 0)
(0.899318 0.978729 0)
(0.89209 1.02296 0)
(0.883861 1.03912 0)
(0.87488 1.01459 0)
(0.873663 0.929812 0)
(0.865903 0.747196 0)
(0.998122 0.0268692 0)
(0.991332 0.0868093 0)
(0.983655 0.147663 0)
(0.97622 0.20883 0)
(0.969002 0.270663 0)
(0.962075 0.333831 0)
(0.955438 0.399115 0)
(0.949102 0.467226 0)
(0.943092 0.538646 0)
(0.937464 0.613439 0)
(0.932317 0.691033 0)
(0.927821 0.77 0)
(0.92425 0.847803 0)
(0.922021 0.920544 0)
(0.921777 0.982649 0)
(0.924304 1.02647 0)
(0.929862 1.04204 0)
(0.938179 1.01768 0)
(0.948366 0.939707 0)
(0.944218 0.791571 0)
(0.998354 0.0281946 0)
(0.992011 0.088799 0)
(0.984612 0.1499 0)
(0.977481 0.211196 0)
(0.970646 0.27313 0)
(0.964212 0.336384 0)
(0.958223 0.401737 0)
(0.952757 0.469885 0)
(0.947938 0.541285 0)
(0.943963 0.61595 0)
(0.94113 0.693233 0)
(0.939875 0.77158 0)
(0.940799 0.848264 0)
(0.944677 0.919125 0)
(0.952382 0.978319 0)
(0.964572 1.01817 0)
(0.980894 1.02944 0)
(0.999203 1.00281 0)
(1.01428 0.931054 0)
(1.01344 0.812707 0)
(0.99861 0.0294355 0)
(0.992851 0.0907628 0)
(0.985901 0.152123 0)
(0.979243 0.213525 0)
(0.972981 0.275508 0)
(0.967269 0.338767 0)
(0.962214 0.404061 0)
(0.957982 0.472051 0)
(0.954817 0.543122 0)
(0.953075 0.617188 0)
(0.953252 0.693447 0)
(0.956 0.770131 0)
(0.962107 0.844253 0)
(0.972399 0.911407 0)
(0.987493 0.965714 0)
(1.00732 1.00009 0)
(1.03038 1.00711 0)
(1.05317 0.980863 0)
(1.06981 0.919291 0)
(1.072 0.826759 0)
(0.998871 0.03061 0)
(0.993817 0.0927244 0)
(0.987511 0.154358 0)
(0.981525 0.215834 0)
(0.976058 0.277794 0)
(0.971322 0.340939 0)
(0.967507 0.405994 0)
(0.964874 0.473545 0)
(0.963794 0.543871 0)
(0.964767 0.616725 0)
(0.968433 0.6911 0)
(0.975544 0.764987 0)
(0.986864 0.83519 0)
(1.00297 0.897268 0)
(1.02393 0.94574 0)
(1.04879 0.9747 0)
(1.07523 0.978961 0)
(1.09936 0.955637 0)
(1.11623 0.905621 0)
(1.12091 0.834406 0)
(0.999124 0.0316832 0)
(0.994876 0.0946141 0)
(0.989419 0.156514 0)
(0.984328 0.218012 0)
(0.979898 0.279842 0)
(0.976409 0.342707 0)
(0.974137 0.407269 0)
(0.973438 0.474013 0)
(0.97479 0.543064 0)
(0.97879 0.613985 0)
(0.986131 0.685549 0)
(0.997514 0.755557 0)
(1.01349 0.820759 0)
(1.03421 0.876973 0)
(1.05911 0.919503 0)
(1.08662 0.943904 0)
(1.11407 0.947026 0)
(1.13799 0.928067 0)
(1.15475 0.889171 0)
(1.16164 0.835253 0)
(0.999357 0.032612 0)
(0.995993 0.0963316 0)
(0.991589 0.158459 0)
(0.987628 0.219895 0)
(0.984488 0.281451 0)
(0.982514 0.343814 0)
(0.982058 0.407565 0)
(0.98356 0.473052 0)
(0.987558 0.540229 0)
(0.994678 0.608458 0)
(1.00556 0.676336 0)
(1.02072 0.741591 0)
(1.04039 0.801126 0)
(1.06426 0.851285 0)
(1.09127 0.88837 0)
(1.11957 0.90936 0)
(1.14664 0.912666 0)
(1.16969 0.89866 0)
(1.18634 0.869723 0)
(1.19512 0.82975 0)
(0.999567 0.0333593 0)
(0.99714 0.0977692 0)
(0.993976 0.16004 0)
(0.991375 0.221292 0)
(0.989768 0.282387 0)
(0.989549 0.343979 0)
(0.99113 0.406544 0)
(0.994992 0.470282 0)
(1.00169 0.534968 0)
(1.01178 0.5998 0)
(1.02578 0.663285 0)
(1.04395 0.723225 0)
(1.06615 0.776871 0)
(1.09172 0.821256 0)
(1.11935 0.853702 0)
(1.1472 0.872369 0)
(1.17314 0.876699 0)
(1.19512 0.867584 0)
(1.21164 0.847173 0)
(1.22192 0.818392 0)
(0.999752 0.0338919 0)
(0.998291 0.0988104 0)
(0.996523 0.161081 0)
(0.995488 0.221982 0)
(0.995627 0.282389 0)
(0.997355 0.342902 0)
(1.00111 0.403879 0)
(1.00736 0.46537 0)
(1.01662 0.527 0)
(1.02935 0.587865 0)
(1.04583 0.646489 0)
(1.06607 0.700893 0)
(1.08966 0.7488 0)
(1.1157 0.78798 0)
(1.14285 0.816648 0)
(1.16948 0.833831 0)
(1.19392 0.839566 0)
(1.21476 0.834876 0)
(1.23105 0.821532 0)
(1.24241 0.801682 0)
(0.999914 0.0341775 0)
(0.999424 0.0993299 0)
(0.999167 0.161389 0)
(0.999862 0.22172 0)
(1.00191 0.281175 0)
(1.0057 0.340278 0)
(1.01165 0.399269 0)
(1.02019 0.458064 0)
(1.03173 0.516183 0)
(1.04657 0.572703 0)
(1.06479 0.62627 0)
(1.08616 0.675223 0)
(1.11011 0.717807 0)
(1.13566 0.752468 0)
(1.16159 0.778126 0)
(1.18656 0.794382 0)
(1.20935 0.801566 0)
(1.22898 0.800643 0)
(1.24489 0.793004 0)
(1.25688 0.780216 0)
(1.00006 0.0341846 0)
(1.00052 0.0991985 0)
(1.00184 0.16076 0)
(1.00437 0.220251 0)
(1.00841 0.278463 0)
(1.01428 0.335827 0)
(1.02235 0.392474 0)
(1.03294 0.448217 0)
(1.04635 0.502532 0)
(1.06269 0.55455 0)
(1.08188 0.603121 0)
(1.10355 0.646946 0)
(1.12702 0.684773 0)
(1.15139 0.715605 0)
(1.17563 0.738872 0)
(1.19871 0.754521 0)
(1.21974 0.762993 0)
(1.23809 0.765122 0)
(1.25342 0.761975 0)
(1.26563 0.754698 0)
(1.00019 0.0338825 0)
(1.00157 0.0982875 0)
(1.00448 0.15899 0)
(1.00888 0.217324 0)
(1.01491 0.27399 0)
(1.0228 0.329317 0)
(1.03278 0.383339 0)
(1.04509 0.435808 0)
(1.05986 0.486207 0)
(1.07709 0.533787 0)
(1.09654 0.577639 0)
(1.11778 0.616825 0)
(1.14015 0.650521 0)
(1.16289 0.678158 0)
(1.18515 0.699506 0)
(1.2062 0.714701 0)
(1.22542 0.724201 0)
(1.24239 0.728693 0)
(1.25691 0.728992 0)
(1.26895 0.72594 0)
(1.0003 0.0332393 0)
(1.00257 0.096471 0)
(1.00704 0.155882 0)
(1.01328 0.212709 0)
(1.02122 0.267536 0)
(1.03095 0.320585 0)
(1.04256 0.371809 0)
(1.05618 0.420935 0)
(1.0718 0.467498 0)
(1.0893 0.510898 0)
(1.1084 0.550472 0)
(1.12866 0.585601 0)
(1.1495 0.615799 0)
(1.17029 0.6408 0)
(1.19043 0.660587 0)
(1.20937 0.675389 0)
(1.22671 0.685632 0)
(1.24219 0.691877 0)
(1.25569 0.694745 0)
(1.26721 0.694863 0)
(1.00042 0.0322183 0)
(1.00354 0.0936207 0)
(1.0095 0.151249 0)
(1.01751 0.206204 0)
(1.0272 0.258934 0)
(1.03852 0.309548 0)
(1.05143 0.357931 0)
(1.0659 0.403809 0)
(1.08186 0.44679 0)
(1.09912 0.486428 0)
(1.11737 0.522281 0)
(1.13623 0.553982 0)
(1.15523 0.581298 0)
(1.1739 0.60416 0)
(1.19181 0.622679 0)
(1.2086 0.637117 0)
(1.22401 0.647858 0)
(1.23788 0.655353 0)
(1.25014 0.660086 0)
(1.26083 0.662529 0)
(1.00054 0.0307713 0)
(1.0045 0.0895993 0)
(1.01192 0.14491 0)
(1.02157 0.197638 0)
(1.03283 0.248071 0)
(1.04545 0.296196 0)
(1.05927 0.341837 0)
(1.07418 0.384722 0)
(1.09001 0.424534 0)
(1.10657 0.460956 0)
(1.1236 0.493722 0)
(1.14076 0.52265 0)
(1.15772 0.547673 0)
(1.17416 0.568849 0)
(1.1898 0.586355 0)
(1.20439 0.600461 0)
(1.2178 0.611505 0)
(1.22993 0.61986 0)
(1.24077 0.625907 0)
(1.25035 0.630015 0)
(1.00069 0.0288316 0)
(1.00556 0.0842636 0)
(1.01443 0.136716 0)
(1.02562 0.186909 0)
(1.03823 0.23493 0)
(1.05185 0.280626 0)
(1.06623 0.323753 0)
(1.08118 0.364037 0)
(1.0965 0.401214 0)
(1.11201 0.435068 0)
(1.1275 0.465451 0)
(1.14274 0.492302 0)
(1.15752 0.515655 0)
(1.17164 0.535636 0)
(1.18493 0.552446 0)
(1.19728 0.566346 0)
(1.2086 0.577632 0)
(1.21889 0.586617 0)
(1.22813 0.593611 0)
(1.23638 0.598912 0)
(1.00093 0.0262255 0)
(1.00691 0.0773423 0)
(1.01726 0.126466 0)
(1.02988 0.173954 0)
(1.04362 0.219615 0)
(1.05796 0.263119 0)
(1.07257 0.304124 0)
(1.08723 0.342327 0)
(1.10176 0.377485 0)
(1.116 0.409434 0)
(1.12981 0.438095 0)
(1.14305 0.463477 0)
(1.15561 0.485671 0)
(1.16739 0.504837 0)
(1.17833 0.521188 0)
(1.18838 0.534971 0)
(1.19755 0.546454 0)
(1.20583 0.555907 0)
(1.21327 0.563595 0)
(1.21992 0.569765 0)
(1.00141 0.0222105 0)
(1.00889 0.0676325 0)
(1.02076 0.112887 0)
(1.03464 0.157579 0)
(1.04923 0.201109 0)
(1.06398 0.242917 0)
(1.07852 0.282538 0)
(1.09261 0.319598 0)
(1.10609 0.353819 0)
(1.11885 0.385023 0)
(1.13081 0.413125 0)
(1.14194 0.438136 0)
(1.15223 0.460142 0)
(1.16168 0.479297 0)
(1.1703 0.4958 0)
(1.17813 0.509882 0)
(1.1852 0.521787 0)
(1.19157 0.531762 0)
(1.19728 0.540049 0)
(1.20239 0.546872 0)
(1.00205 0.015609 0)
(1.01117 0.0539176 0)
(1.02438 0.094753 0)
(1.03927 0.136323 0)
(1.05459 0.177491 0)
(1.06976 0.217474 0)
(1.08439 0.2557 0)
(1.0982 0.291741 0)
(1.11102 0.325287 0)
(1.12273 0.356131 0)
(1.13331 0.384162 0)
(1.14276 0.409354 0)
(1.15113 0.431759 0)
(1.1585 0.451488 0)
(1.16494 0.468702 0)
(1.17057 0.483592 0)
(1.17546 0.496369 0)
(1.1797 0.507251 0)
(1.18339 0.516455 0)
(1.18659 0.524188 0)
(0.440729 0.247822 0)
(0.263021 0.0930406 0)
(0.157064 0.0334489 0)
(0.105368 0.0121815 0)
(0.0794436 0.00485906 0)
(0.0641784 0.00233513 0)
(0.0539706 0.00138834 0)
(0.0465376 0.000951676 0)
(0.0408032 0.000698075 0)
(0.0362196 0.000527949 0)
(0.0324718 0.000405633 0)
(0.02936 0.000314195 0)
(0.0267531 0.00024362 0)
(0.0245667 0.000187281 0)
(0.0227509 0.000140498 0)
(0.0212866 9.97541e-05 0)
(0.0201744 6.28838e-05 0)
(0.0194629 2.78319e-05 0)
(0.0191116 2.57892e-06 0)
(0.0192063 -1.40134e-05 0)
(0.743306 0.457127 0)
(0.588756 0.248727 0)
(0.444502 0.126917 0)
(0.338908 0.0650022 0)
(0.266503 0.0349351 0)
(0.21629 0.0202773 0)
(0.180513 0.0127746 0)
(0.154123 0.00860094 0)
(0.13393 0.00606945 0)
(0.117994 0.00442357 0)
(0.105116 0.00329639 0)
(0.0945276 0.00249202 0)
(0.0857277 0.00189669 0)
(0.0783889 0.00143969 0)
(0.0723106 0.00107453 0)
(0.0673955 0.000769212 0)
(0.063618 0.000502756 0)
(0.061078 0.000263838 0)
(0.0596723 8.0315e-05 0)
(0.0595885 -2.23853e-05 0)
(0.886328 0.587091 0)
(0.787303 0.403283 0)
(0.666979 0.260619 0)
(0.553349 0.163897 0)
(0.458065 0.10291 0)
(0.382258 0.0658959 0)
(0.323219 0.0435826 0)
(0.277271 0.0298574 0)
(0.241085 0.0211176 0)
(0.21212 0.0153348 0)
(0.188563 0.0113647 0)
(0.169151 0.0085435 0)
(0.153008 0.00647134 0)
(0.139544 0.00489641 0)
(0.128382 0.00365324 0)
(0.119318 0.00262942 0)
(0.112282 0.0017497 0)
(0.107392 0.000979746 0)
(0.104495 0.000372185 0)
(0.103842 4.40705e-05 0)
(0.981284 0.666972 0)
(0.919248 0.521171 0)
(0.830734 0.385886 0)
(0.731479 0.275171 0)
(0.634642 0.192042 0)
(0.547615 0.133218 0)
(0.473154 0.0930131 0)
(0.411097 0.0658714 0)
(0.359896 0.047472 0)
(0.317661 0.0348138 0)
(0.282661 0.0259228 0)
(0.253483 0.0195264 0)
(0.229045 0.0148018 0)
(0.208563 0.0112077 0)
(0.191508 0.00837882 0)
(0.177577 0.00606363 0)
(0.166645 0.00409123 0)
(0.158834 0.00238416 0)
(0.153959 0.00101879 0)
(0.152313 0.000264503 0)
(1.05344 0.718784 0)
(1.01441 0.605123 0)
(0.952637 0.488 0)
(0.87437 0.379479 0)
(0.788319 0.287027 0)
(0.702301 0.213253 0)
(0.621763 0.157132 0)
(0.549587 0.115738 0)
(0.48664 0.0856888 0)
(0.432569 0.0639577 0)
(0.386457 0.0481569 0)
(0.347243 0.0365262 0)
(0.313947 0.0278117 0)
(0.285765 0.0211299 0)
(0.262108 0.0158562 0)
(0.242619 0.0115465 0)
(0.227143 0.00789261 0)
(0.21581 0.00474789 0)
(0.208425 0.00220855 0)
(0.205336 0.000743483 0)
(1.11097 0.753021 0)
(1.08693 0.664882 0)
(1.04537 0.567937 0)
(0.98744 0.470033 0)
(0.91723 0.37832 0)
(0.840254 0.297752 0)
(0.76191 0.230612 0)
(0.68645 0.176887 0)
(0.616595 0.135107 0)
(0.553682 0.103178 0)
(0.498044 0.0789595 0)
(0.449426 0.06057 0)
(0.407306 0.0464874 0)
(0.371113 0.0355337 0)
(0.340362 0.0268172 0)
(0.314738 0.0196725 0)
(0.294115 0.0136214 0)
(0.27866 0.00842184 0)
(0.268211 0.00418513 0)
(0.263203 0.00161908 0)
(1.15781 0.773923 0)
(1.14402 0.706114 0)
(1.11726 0.628129 0)
(1.0765 0.544314 0)
(1.02274 0.459868 0)
(0.958805 0.379692 0)
(0.888556 0.307478 0)
(0.816019 0.245278 0)
(0.744652 0.193589 0)
(0.676983 0.151763 0)
(0.614573 0.118508 0)
(0.558186 0.092297 0)
(0.508043 0.0716477 0)
(0.46407 0.0552536 0)
(0.42609 0.0420279 0)
(0.393974 0.0311021 0)
(0.367719 0.0218206 0)
(0.347597 0.0138285 0)
(0.333534 0.00724975 0)
(0.326121 0.00307149 0)
(1.19582 0.783982 0)
(1.18931 0.732421 0)
(1.17339 0.671099 0)
(1.14632 0.60203 0)
(1.10749 0.528365 0)
(1.05764 0.45385 0)
(0.998796 0.382134 0)
(0.933849 0.316157 0)
(0.865949 0.257792 0)
(0.798019 0.207802 0)
(0.732416 0.166031 0)
(0.670822 0.131704 0)
(0.614302 0.103731 0)
(0.563456 0.0809341 0)
(0.51861 0.0621878 0)
(0.479986 0.0465023 0)
(0.447835 0.0330774 0)
(0.422625 0.0214499 0)
(0.404448 0.0117616 0)
(0.394152 0.00533055 0)
(1.22597 0.784878 0)
(1.22473 0.746364 0)
(1.21678 0.699236 0)
(1.20036 0.644114 0)
(1.17416 0.582556 0)
(1.13766 0.51693 0)
(1.09141 0.450078 0)
(1.0369 0.384863 0)
(0.976355 0.32373 0)
(0.912363 0.268401 0)
(0.847467 0.21977 0)
(0.783896 0.177982 0)
(0.723417 0.142609 0)
(0.667339 0.112868 0)
(0.616602 0.0878096 0)
(0.571924 0.0664664 0)
(0.533942 0.0479762 0)
(0.503437 0.0318048 0)
(0.480755 0.0181321 0)
(0.467144 0.00868116 0)
(1.24887 0.777871 0)
(1.25143 0.749846 0)
(1.24934 0.714587 0)
(1.24104 0.671954 0)
(1.22507 0.622435 0)
(1.20032 0.567222 0)
(1.16633 0.508133 0)
(1.12343 0.447401 0)
(1.07273 0.387349 0)
(1.01604 0.330059 0)
(0.955516 0.277114 0)
(0.893455 0.229464 0)
(0.831997 0.187434 0)
(0.772998 0.150824 0)
(0.718001 0.11907 0)
(0.668284 0.0914013 0)
(0.624977 0.0670227 0)
(0.589285 0.0454045 0)
(0.561895 0.026807 0)
(0.544631 0.013464 0)
(1.26498 0.764071 0)
(1.27022 0.744437 0)
(1.27235 0.71895 0)
(1.2701 0.6871 0)
(1.26213 0.648739 0)
(1.24715 0.604211 0)
(1.22419 0.554412 0)
(1.19276 0.500755 0)
(1.15302 0.445023 0)
(1.10583 0.389134 0)
(1.05265 0.334885 0)
(0.995377 0.28372 0)
(0.936122 0.236591 0)
(0.87699 0.19392 0)
(0.819954 0.155656 0)
(0.766809 0.12139 0)
(0.719208 0.0905387 0)
(0.678846 0.0626835 0)
(0.646823 0.0382314 0)
(0.625729 0.0200679 0)
(1.27472 0.744552 0)
(1.28171 0.731564 0)
(1.28675 0.713991 0)
(1.28887 0.691186 0)
(1.28692 0.662675 0)
(1.2797 0.628268 0)
(1.26605 0.588168 0)
(1.24505 0.543024 0)
(1.21617 0.493927 0)
(1.17947 0.442304 0)
(1.13558 0.389748 0)
(1.08575 0.337804 0)
(1.03167 0.287773 0)
(0.975344 0.240567 0)
(0.918898 0.196648 0)
(0.864461 0.156054 0)
(0.814138 0.118537 0)
(0.770105 0.083905 0)
(0.733883 0.052794 0)
(0.709024 0.0289077 0)
(1.27847 0.720424 0)
(1.28647 0.712622 0)
(1.29337 0.701339 0)
(1.29845 0.685925 0)
(1.30082 0.665777 0)
(1.29944 0.640421 0)
(1.2932 0.609609 0)
(1.28104 0.573407 0)
(1.26205 0.532251 0)
(1.23571 0.486957 0)
(1.20194 0.438649 0)
(1.16124 0.388633 0)
(1.1147 0.338223 0)
(1.06389 0.288562 0)
(1.01076 0.240484 0)
(0.957509 0.194451 0)
(0.9065 0.1506 0)
(0.860282 0.10905 0)
(0.820723 0.0707478 0)
(0.792488 0.040384 0)
(1.27668 0.692852 0)
(1.28507 0.689021 0)
(1.29296 0.682633 0)
(1.29985 0.673102 0)
(1.30507 0.659816 0)
(1.30779 0.642188 0)
(1.30708 0.619727 0)
(1.3019 0.592113 0)
(1.29124 0.559276 0)
(1.27426 0.521458 0)
(1.25037 0.479222 0)
(1.21945 0.433422 0)
(1.18189 0.385092 0)
(1.13868 0.335314 0)
(1.09131 0.285058 0)
(1.04177 0.235059 0)
(0.992392 0.185793 0)
(0.945878 0.137712 0)
(0.904277 0.0921166 0)
(0.873447 0.0548227 0)
(1.26986 0.663115 0)
(1.27812 0.66226 0)
(1.28629 0.659593 0)
(1.29402 0.654617 0)
(1.30085 0.646777 0)
(1.30616 0.635481 0)
(1.30921 0.620142 0)
(1.30911 0.60023 0)
(1.30492 0.575344 0)
(1.29569 0.545279 0)
(1.28059 0.510083 0)
(1.25904 0.470084 0)
(1.23088 0.42587 0)
(1.19645 0.378212 0)
(1.15667 0.327954 0)
(1.11303 0.275885 0)
(1.06758 0.222672 0)
(1.02288 0.16903 0)
(0.980898 0.116607 0)
(0.948666 0.0723994 0)
(1.25858 0.632484 0)
(1.26628 0.63381 0)
(1.27413 0.633908 0)
(1.28192 0.632373 0)
(1.28932 0.62873 0)
(1.29591 0.622437 0)
(1.30115 0.612904 0)
(1.30434 0.599523 0)
(1.30468 0.581713 0)
(1.30129 0.558977 0)
(1.29328 0.530967 0)
(1.27988 0.49754 0)
(1.26053 0.45879 0)
(1.23506 0.415045 0)
(1.20378 0.366816 0)
(1.1676 0.314716 0)
(1.12805 0.2594 0)
(1.08722 0.201705 0)
(1.0467 0.143543 0)
(1.01461 0.0930403 0)
(1.24356 0.60273 0)
(1.25037 0.60562 0)
(1.25744 0.607713 0)
(1.26464 0.608686 0)
(1.27177 0.608147 0)
(1.27856 0.605628 0)
(1.28463 0.600588 0)
(1.28947 0.592423 0)
(1.29249 0.580489 0)
(1.29295 0.564136 0)
(1.29007 0.542764 0)
(1.28304 0.515874 0)
(1.27114 0.483128 0)
(1.25387 0.444388 0)
(1.23106 0.399731 0)
(1.20304 0.349429 0)
(1.17067 0.293934 0)
(1.13539 0.234035 0)
(1.09814 0.171769 0)
(1.06794 0.116231 0)
(1.22573 0.574568 0)
(1.23128 0.578608 0)
(1.23712 0.582171 0)
(1.24319 0.585 0)
(1.24936 0.586773 0)
(1.25548 0.587087 0)
(1.26129 0.585462 0)
(1.26647 0.581329 0)
(1.27059 0.574045 0)
(1.27312 0.562901 0)
(1.27344 0.547164 0)
(1.27083 0.526112 0)
(1.26461 0.499098 0)
(1.25412 0.465607 0)
(1.23892 0.425307 0)
(1.21884 0.378091 0)
(1.19415 0.324114 0)
(1.16545 0.263979 0)
(1.13286 0.199685 0)
(1.10623 0.141041 0)
(1.20687 0.552352 0)
(1.21116 0.557132 0)
(1.21567 0.561603 0)
(1.22035 0.565554 0)
(1.22515 0.568714 0)
(1.22998 0.570743 0)
(1.2347 0.571221 0)
(1.23912 0.569641 0)
(1.243 0.56541 0)
(1.246 0.557846 0)
(1.24771 0.546196 0)
(1.24762 0.529665 0)
(1.24515 0.507457 0)
(1.23971 0.478831 0)
(1.2307 0.443168 0)
(1.21764 0.400039 0)
(1.20024 0.349289 0)
(1.17827 0.291226 0)
(1.15099 0.227573 0)
(1.12899 0.168519 0)
(1.18933 0.530541 0)
(1.19193 0.536228 0)
(1.19473 0.54175 0)
(1.19774 0.546929 0)
(1.20094 0.551532 0)
(1.20431 0.555268 0)
(1.2078 0.557772 0)
(1.21131 0.558598 0)
(1.21471 0.557208 0)
(1.21782 0.552969 0)
(1.22035 0.545152 0)
(1.22194 0.532946 0)
(1.22214 0.515479 0)
(1.22039 0.49187 0)
(1.21603 0.461283 0)
(1.20839 0.423015 0)
(1.19672 0.376612 0)
(1.17996 0.322104 0)
(1.15686 0.261075 0)
(1.13872 0.203822 0)
)
;

boundaryField
{
    zeroGradPlanes
    {
        type            zeroGradient;
    }
    inlet
    {
        type            fixedValue;
        value           uniform (1 0 0);
    }
    plate
    {
        type            noSlip;
    }
    frontAndBack
    {
        type            empty;
    }
}


// ************************************************************************* //
