/*--------------------------------*- C++ -*----------------------------------*\
| =========                 |                                                 |
| \\      /  F ield         | OpenFOAM: The Open Source CFD Toolbox           |
|  \\    /   O peration     | Version:  v1906                                 |
|   \\  /    A nd           | Web:      www.OpenFOAM.com                      |
|    \\/     M anipulation  |                                                 |
\*---------------------------------------------------------------------------*/
FoamFile
{
    version     2.0;
    format      ascii;
    class       volScalarField;
    location    "0.2";
    object      p;
}
// * * * * * * * * * * * * * * * * * * * * * * * * * * * * * * * * * * * * * //

dimensions      [0 2 -2 0 0 0 0];


internalField   nonuniform List<scalar> 
800
(
3.81735e-08
0.000256843
0.00397998
0.00969393
0.0163935
0.0238843
0.0321651
0.041269
0.0512815
0.0623574
0.0747346
0.0887647
0.104973
0.124203
0.147801
0.177156
0.213537
0.272489
0.409021
0.502062
-0.0135219
-0.0148939
-0.0130968
-0.00909321
-0.0038913
0.00221914
0.00913935
0.0168138
0.0252389
0.0344614
0.0445705
0.0556927
0.0679781
0.0815885
0.096665
0.112676
0.126264
0.134067
0.145812
0.0932096
-0.0341863
-0.0362088
-0.0356716
-0.0331314
-0.0294336
-0.0248807
-0.0196283
-0.0138063
-0.00751797
-0.000854928
0.00607237
0.0130903
0.0198816
0.0258447
0.02986
0.0296565
0.0200736
-0.00742041
-0.0593177
-0.162503
-0.0569761
-0.0587046
-0.0585656
-0.0568753
-0.0542474
-0.0509386
-0.04712
-0.0429634
-0.0386429
-0.0343565
-0.0303665
-0.0270593
-0.0250439
-0.0253122
-0.0294793
-0.0401966
-0.0619316
-0.101193
-0.164521
-0.264084
-0.081201
-0.0824959
-0.0825086
-0.0814155
-0.0796435
-0.0774048
-0.0748741
-0.0722474
-0.0697457
-0.067638
-0.0662816
-0.0661812
-0.0680758
-0.0730673
-0.0827914
-0.0996425
-0.127038
-0.169275
-0.230531
-0.316241
-0.106492
-0.107399
-0.107489
-0.106862
-0.105814
-0.104521
-0.103158
-0.10193
-0.101086
-0.100931
-0.101871
-0.104453
-0.109438
-0.117885
-0.131252
-0.151491
-0.181091
-0.222801
-0.278868
-0.350892
-0.132431
-0.132986
-0.133101
-0.132839
-0.132397
-0.131924
-0.131589
-0.131597
-0.1322
-0.133718
-0.13656
-0.141262
-0.148537
-0.159319
-0.174812
-0.196502
-0.2261
-0.265259
-0.314999
-0.375217
-0.158683
-0.15892
-0.159031
-0.159057
-0.15912
-0.159348
-0.159896
-0.16096
-0.162786
-0.165677
-0.17002
-0.176307
-0.185159
-0.197353
-0.213827
-0.235655
-0.263951
-0.299637
-0.343043
-0.393505
-0.18499
-0.184944
-0.185034
-0.185291
-0.185776
-0.186595
-0.187889
-0.189838
-0.192664
-0.196645
-0.202125
-0.209528
-0.219374
-0.232276
-0.248933
-0.27009
-0.296436
-0.328434
-0.36606
-0.408539
-0.211139
-0.210839
-0.2109
-0.211345
-0.212182
-0.213497
-0.215414
-0.21809
-0.221716
-0.226535
-0.232837
-0.240975
-0.251361
-0.26446
-0.280775
-0.300797
-0.324927
-0.35335
-0.385876
-0.42178
-0.23695
-0.236422
-0.236449
-0.237048
-0.238181
-0.239914
-0.24235
-0.245616
-0.249873
-0.255318
-0.262188
-0.27076
-0.281348
-0.294291
-0.309933
-0.328579
-0.350437
-0.375529
-0.403597
-0.434019
-0.262273
-0.261533
-0.261523
-0.262256
-0.263646
-0.265737
-0.268609
-0.272359
-0.27711
-0.283015
-0.290255
-0.299037
-0.309589
-0.322145
-0.336922
-0.354093
-0.373736
-0.395782
-0.419957
-0.445738
-0.286973
-0.286031
-0.285986
-0.286844
-0.288471
-0.290884
-0.294137
-0.298294
-0.303439
-0.309682
-0.317149
-0.325987
-0.336346
-0.348373
-0.362193
-0.377878
-0.395424
-0.414708
-0.435464
-0.457257
-0.31093
-0.309784
-0.309712
-0.310705
-0.312571
-0.315296
-0.318905
-0.323424
-0.328902
-0.335403
-0.343007
-0.351802
-0.361876
-0.373305
-0.38614
-0.400384
-0.415975
-0.432762
-0.450493
-0.468807
-0.334016
-0.332657
-0.332578
-0.333741
-0.335879
-0.338939
-0.342908
-0.347781
-0.353565
-0.360285
-0.367978
-0.376681
-0.38643
-0.397244
-0.409115
-0.421995
-0.435783
-0.450312
-0.465345
-0.480576
-0.356065
-0.354471
-0.354427
-0.35583
-0.358309
-0.361757
-0.366127
-0.371374
-0.377471
-0.384407
-0.392178
-0.400782
-0.410208
-0.420429
-0.431391
-0.443007
-0.455146
-0.467631
-0.480237
-0.492703
-0.376855
-0.37499
-0.375047
-0.376805
-0.379734
-0.383662
-0.388502
-0.394175
-0.400621
-0.407798
-0.415672
-0.424203
-0.433345
-0.44303
-0.453168
-0.463639
-0.474289
-0.484931
-0.49535
-0.505311
-0.396202
-0.394183
-0.394567
-0.396916
-0.4005
-0.405072
-0.410512
-0.416712
-0.423589
-0.43108
-0.439122
-0.447651
-0.456585
-0.465827
-0.475254
-0.484714
-0.494034
-0.503012
-0.511436
-0.519089
-0.413605
-0.412211
-0.413645
-0.417111
-0.421723
-0.427207
-0.433438
-0.440309
-0.447731
-0.455628
-0.463924
-0.472531
-0.481342
-0.490228
-0.499034
-0.507579
-0.515657
-0.523051
-0.529536
-0.534902
-0.424841
-0.424782
-0.427705
-0.432396
-0.437963
-0.444184
-0.450983
-0.458284
-0.466012
-0.474096
-0.482455
-0.49099
-0.499576
-0.50806
-0.516261
-0.523968
-0.530949
-0.536958
-0.541753
-0.545116
-0.417089
-0.97409
-1.07043
-1.04483
-1.00664
-0.97162
-0.94207
-0.918048
-0.898591
-0.882662
-0.869487
-0.858538
-0.849472
-0.842085
-0.83627
-0.83198
-0.829206
-0.827936
-0.827732
-0.827038
-0.388192
-0.722877
-0.84629
-0.886647
-0.898265
-0.896074
-0.887756
-0.877647
-0.867611
-0.858344
-0.850097
-0.842948
-0.836916
-0.83201
-0.828242
-0.825628
-0.824192
-0.824062
-0.824945
-0.824357
-0.406797
-0.612042
-0.727796
-0.789403
-0.821874
-0.83687
-0.841908
-0.841787
-0.839164
-0.83547
-0.831502
-0.827714
-0.824379
-0.821675
-0.819729
-0.818627
-0.818462
-0.819546
-0.82173
-0.821285
-0.421321
-0.566659
-0.666212
-0.728935
-0.767674
-0.790583
-0.803344
-0.809902
-0.812776
-0.813529
-0.813153
-0.812283
-0.811337
-0.81061
-0.810316
-0.810614
-0.811668
-0.813973
-0.817525
-0.817369
-0.430262
-0.539463
-0.623212
-0.682457
-0.723247
-0.750576
-0.768412
-0.779822
-0.786992
-0.791425
-0.794151
-0.795883
-0.797122
-0.798233
-0.799501
-0.80114
-0.80338
-0.806874
-0.811764
-0.811962
-0.437403
-0.521825
-0.59203
-0.646231
-0.686642
-0.715987
-0.73689
-0.751631
-0.762002
-0.769341
-0.774627
-0.778579
-0.781728
-0.78448
-0.787161
-0.790029
-0.793361
-0.797939
-0.804034
-0.804541
-0.443348
-0.510618
-0.569726
-0.618288
-0.656681
-0.686236
-0.708589
-0.725349
-0.737907
-0.747382
-0.754651
-0.76039
-0.765121
-0.769261
-0.773156
-0.777086
-0.78136
-0.786855
-0.793942
-0.794623
-0.448699
-0.503579
-0.553566
-0.596488
-0.631965
-0.660523
-0.683111
-0.700813
-0.71466
-0.725549
-0.734226
-0.741295
-0.747245
-0.752479
-0.757344
-0.762126
-0.767147
-0.773345
-0.781151
-0.7818
-0.454044
-0.499461
-0.541823
-0.579376
-0.611489
-0.63825
-0.660162
-0.677921
-0.692265
-0.70389
-0.713406
-0.721333
-0.72811
-0.734109
-0.73966
-0.745044
-0.750575
-0.757224
-0.765432
-0.765789
-0.459686
-0.497573
-0.533463
-0.56601
-0.594561
-0.618995
-0.639542
-0.656632
-0.670782
-0.682514
-0.692316
-0.700622
-0.70781
-0.714215
-0.720138
-0.725837
-0.731609
-0.738429
-0.746698
-0.746471
-0.465766
-0.497473
-0.52779
-0.555707
-0.580649
-0.602417
-0.621089
-0.636928
-0.650287
-0.661558
-0.671122
-0.679334
-0.686514
-0.692948
-0.698905
-0.704611
-0.710333
-0.717026
-0.725007
-0.723895
-0.472357
-0.49886
-0.524305
-0.547948
-0.569321
-0.588219
-0.604651
-0.618779
-0.630851
-0.64116
-0.650006
-0.657676
-0.664433
-0.670522
-0.676169
-0.681563
-0.686937
-0.693206
-0.700558
-0.698273
-0.479506
-0.501526
-0.52265
-0.542336
-0.560224
-0.576142
-0.590078
-0.602142
-0.61252
-0.62144
-0.62914
-0.635856
-0.641804
-0.647186
-0.652189
-0.656963
-0.661698
-0.66726
-0.673672
-0.669954
-0.487254
-0.505334
-0.522569
-0.538568
-0.553073
-0.565958
-0.577221
-0.586954
-0.595311
-0.602482
-0.608668
-0.614064
-0.618851
-0.623195
-0.627246
-0.631114
-0.634945
-0.639547
-0.64475
-0.639389
-0.495653
-0.510204
-0.523883
-0.536419
-0.547637
-0.557465
-0.565929
-0.573124
-0.579198
-0.584323
-0.58868
-0.59244
-0.595758
-0.598772
-0.6016
-0.604313
-0.607014
-0.610449
-0.614235
-0.60709
-0.504743
-0.516076
-0.526456
-0.535702
-0.543713
-0.550473
-0.556042
-0.560538
-0.564116
-0.566951
-0.569217
-0.571076
-0.572668
-0.57411
-0.575492
-0.576851
-0.578252
-0.580375
-0.582624
-0.573656
-0.51458
-0.522942
-0.530225
-0.536319
-0.54119
-0.544875
-0.547478
-0.549148
-0.550064
-0.550416
-0.550386
-0.550135
-0.549799
-0.549481
-0.549252
-0.549119
-0.549114
-0.549854
-0.550533
-0.539773
-0.525772
-0.531316
-0.535607
-0.538598
-0.540314
-0.540848
-0.540352
-0.539021
-0.537067
-0.534707
-0.532144
-0.529551
-0.527066
-0.524789
-0.522777
-0.521014
-0.519507
-0.51882
-0.517916
-0.505329
-0.538966
-0.541597
-0.542729
-0.542372
-0.540615
-0.537617
-0.533596
-0.528805
-0.523511
-0.517979
-0.512445
-0.507109
-0.502124
-0.497591
-0.493558
-0.489994
-0.486899
-0.484775
-0.482377
-0.468593
-0.546871
-0.546908
-0.545197
-0.541803
-0.536875
-0.530646
-0.523405
-0.515476
-0.507192
-0.498871
-0.490793
-0.483188
-0.476221
-0.469995
-0.464542
-0.459815
-0.455832
-0.452955
-0.44971
-0.438297
)
;

boundaryField
{
    zeroGradPlanes
    {
        type            zeroGradient;
    }
    inlet
    {
        type            zeroGradient;
    }
    plate
    {
        type            zeroGradient;
    }
    frontAndBack
    {
        type            empty;
    }
}


// ************************************************************************* //
