/*--------------------------------*- C++ -*----------------------------------*\
| =========                 |                                                 |
| \\      /  F ield         | OpenFOAM: The Open Source CFD Toolbox           |
|  \\    /   O peration     | Version:  v1906                                 |
|   \\  /    A nd           | Web:      www.OpenFOAM.com                      |
|    \\/     M anipulation  |                                                 |
\*---------------------------------------------------------------------------*/
FoamFile
{
    version     2.0;
    format      ascii;
    class       surfaceScalarField;
    location    "0.2";
    object      phi;
}
// * * * * * * * * * * * * * * * * * * * * * * * * * * * * * * * * * * * * * //

dimensions      [0 3 -1 0 0 0 0];
oriented        oriented;


internalField   nonuniform List<scalar> 
1540
(
4.99061e-05
4.27961e-07
4.97353e-05
1.38373e-06
4.95262e-05
2.4324e-06
4.92896e-05
3.56696e-06
4.90314e-05
4.78251e-06
4.87547e-05
6.08018e-06
4.84609e-05
7.46617e-06
4.81498e-05
8.95143e-06
4.78203e-05
1.05518e-05
4.74702e-05
1.22883e-05
4.70956e-05
1.41875e-05
4.66909e-05
1.62809e-05
4.62473e-05
1.86029e-05
4.57503e-05
2.1184e-05
4.51751e-05
2.40342e-05
4.44793e-05
2.71056e-05
4.35744e-05
3.02281e-05
4.21844e-05
3.29967e-05
3.95486e-05
3.43286e-05
3.08645e-05
3.48962e-05
4.99272e-05
5.00799e-07
4.97768e-05
1.53406e-06
4.95804e-05
2.62882e-06
4.93542e-05
3.79316e-06
4.91066e-05
5.0301e-06
4.88421e-05
6.34471e-06
4.85629e-05
7.74537e-06
4.82701e-05
9.24426e-06
4.79639e-05
1.0858e-05
4.76443e-05
1.26079e-05
4.73109e-05
1.45209e-05
4.69637e-05
1.66281e-05
4.66033e-05
1.89633e-05
4.62321e-05
2.15553e-05
4.58549e-05
2.44114e-05
4.548e-05
2.74805e-05
4.5127e-05
3.05811e-05
4.48478e-05
3.32758e-05
4.4624e-05
3.45524e-05
3.20259e-05
4.34625e-05
4.99494e-05
5.51375e-07
4.98262e-05
1.65728e-06
4.96553e-05
2.7997e-06
4.94532e-05
3.99529e-06
4.92298e-05
5.25343e-06
4.89916e-05
6.58295e-06
4.87426e-05
7.99436e-06
4.8486e-05
9.50087e-06
4.82248e-05
1.11192e-05
4.79625e-05
1.28701e-05
4.77047e-05
1.47787e-05
4.74595e-05
1.68733e-05
4.72409e-05
1.91819e-05
4.70712e-05
2.1725e-05
4.6986e-05
2.44966e-05
4.70381e-05
2.74284e-05
4.72961e-05
3.03231e-05
4.7822e-05
3.275e-05
4.85069e-05
3.38675e-05
3.21659e-05
4.83669e-05
4.99643e-05
5.87093e-07
4.98689e-05
1.75261e-06
4.97303e-05
2.93834e-06
4.9562e-05
4.16358e-06
4.93742e-05
5.44124e-06
4.91744e-05
6.78278e-06
4.89685e-05
8.20023e-06
4.87621e-05
9.70729e-06
4.85611e-05
1.13202e-05
4.83733e-05
1.3058e-05
4.82095e-05
1.49426e-05
4.80857e-05
1.69971e-05
4.80257e-05
1.92419e-05
4.8065e-05
2.16857e-05
4.8253e-05
2.43085e-05
4.86529e-05
2.70285e-05
4.93264e-05
2.96496e-05
5.0286e-05
3.17904e-05
5.13501e-05
3.28035e-05
3.17477e-05
5.17683e-05
4.9975e-05
6.12089e-07
4.99051e-05
1.82249e-06
4.98002e-05
3.0433e-06
4.96704e-05
4.29335e-06
4.95249e-05
5.58675e-06
4.93715e-05
6.93616e-06
4.92175e-05
8.35425e-06
4.90702e-05
9.85456e-06
4.89383e-05
1.14521e-05
4.88327e-05
1.31636e-05
4.87684e-05
1.50069e-05
4.87663e-05
1.69991e-05
4.88558e-05
1.91524e-05
4.90765e-05
2.14651e-05
4.94789e-05
2.39062e-05
5.01181e-05
2.63893e-05
5.10332e-05
2.87345e-05
5.21981e-05
3.06255e-05
5.34189e-05
3.15827e-05
3.10123e-05
5.41543e-05
4.99837e-05
6.28435e-07
4.99364e-05
1.86978e-06
4.98639e-05
3.11579e-06
4.97736e-05
4.38364e-06
4.96731e-05
5.68721e-06
4.95701e-05
7.03922e-06
4.94722e-05
8.45212e-06
4.93881e-05
9.93864e-06
4.93281e-05
1.15121e-05
4.93052e-05
1.31864e-05
4.93368e-05
1.49753e-05
4.9446e-05
1.68899e-05
4.96631e-05
1.89352e-05
5.00266e-05
2.11016e-05
5.05808e-05
2.3352e-05
5.13673e-05
2.56028e-05
5.24039e-05
2.76979e-05
5.36435e-05
2.93859e-05
5.49074e-05
3.03188e-05
3.01129e-05
5.58068e-05
4.99909e-05
6.37555e-07
4.99635e-05
1.89712e-06
4.99212e-05
3.1581e-06
4.98692e-05
4.4357e-06
4.98136e-05
5.74282e-06
4.97613e-05
7.09148e-06
4.97201e-05
8.49331e-06
4.9699e-05
9.95972e-06
4.97091e-05
1.15021e-05
4.97642e-05
1.31313e-05
4.98823e-05
1.48572e-05
5.00863e-05
1.66859e-05
5.0405e-05
1.86165e-05
5.08723e-05
2.06343e-05
5.15237e-05
2.27005e-05
5.23877e-05
2.47388e-05
5.34666e-05
2.66189e-05
5.47063e-05
2.81462e-05
5.59554e-05
2.90697e-05
2.91333e-05
5.6935e-05
4.9997e-05
6.40547e-07
4.99872e-05
1.90692e-06
4.99723e-05
3.17297e-06
4.9956e-05
4.45203e-06
4.99431e-05
5.75573e-06
4.99396e-05
7.09498e-06
4.99527e-05
8.48017e-06
4.99913e-05
9.92116e-06
5.00662e-05
1.14272e-05
5.01911e-05
1.30064e-05
5.03833e-05
1.4665e-05
5.06639e-05
1.64052e-05
5.10585e-05
1.8222e-05
5.1595e-05
2.00977e-05
5.23006e-05
2.1995e-05
5.31927e-05
2.38467e-05
5.42647e-05
2.5547e-05
5.54638e-05
2.6947e-05
5.66684e-05
2.78651e-05
2.81245e-05
5.76772e-05
5.00023e-05
6.38276e-07
5.00079e-05
1.9013e-06
5.00176e-05
3.16322e-06
5.00339e-05
4.43576e-06
5.00604e-05
5.72925e-06
5.0102e-05
7.05332e-06
5.01653e-05
8.41696e-06
5.02581e-05
9.82835e-06
5.03906e-05
1.12947e-05
5.05754e-05
1.28215e-05
5.08282e-05
1.44122e-05
5.11677e-05
1.60658e-05
5.16151e-05
1.77746e-05
5.21929e-05
1.952e-05
5.29206e-05
2.12673e-05
5.38079e-05
2.29594e-05
5.48435e-05
2.45114e-05
5.59808e-05
2.58097e-05
5.71243e-05
2.67217e-05
2.7121e-05
5.81278e-05
5.00068e-05
6.31442e-07
5.0026e-05
1.8821e-06
5.00577e-05
3.13154e-06
5.01033e-05
4.39018e-06
5.01654e-05
5.66718e-06
5.02478e-05
6.97092e-06
5.03558e-05
8.30895e-06
5.04963e-05
9.6878e-06
5.06783e-05
1.11127e-05
5.09127e-05
1.25871e-05
5.12131e-05
1.41118e-05
5.15952e-05
1.56837e-05
5.20762e-05
1.72935e-05
5.26734e-05
1.89228e-05
5.34003e-05
2.05404e-05
5.42615e-05
2.20982e-05
5.52441e-05
2.35287e-05
5.63088e-05
2.4745e-05
5.73818e-05
2.56487e-05
2.61471e-05
5.83557e-05
5.00108e-05
6.20599e-07
5.00421e-05
1.85083e-06
5.00934e-05
3.08024e-06
5.01652e-05
4.31836e-06
5.02591e-05
5.57335e-06
5.03776e-05
6.85243e-06
5.05247e-05
8.16178e-06
5.07062e-05
9.50636e-06
5.09292e-05
1.08896e-05
5.12032e-05
1.23132e-05
5.15391e-05
1.37759e-05
5.19498e-05
1.5273e-05
5.24489e-05
1.67945e-05
5.30489e-05
1.83227e-05
5.37592e-05
1.98301e-05
5.45809e-05
2.12766e-05
5.55014e-05
2.26082e-05
5.64884e-05
2.37579e-05
5.74854e-05
2.46518e-05
2.52196e-05
5.84129e-05
5.00145e-05
6.06135e-07
5.00567e-05
1.8086e-06
5.01258e-05
3.01117e-06
5.02212e-05
4.22294e-06
5.03433e-05
5.45127e-06
5.04934e-05
6.70231e-06
5.06742e-05
7.98096e-06
5.08899e-05
9.2907e-06
5.11461e-05
1.06334e-05
5.14503e-05
1.2009e-05
5.18112e-05
1.3415e-05
5.22388e-05
1.48454e-05
5.27434e-05
1.62899e-05
5.33342e-05
1.77319e-05
5.40169e-05
1.91474e-05
5.47909e-05
2.05026e-05
5.56446e-05
2.17544e-05
5.65522e-05
2.28504e-05
5.74702e-05
2.37337e-05
2.43502e-05
5.83396e-05
5.00179e-05
5.88243e-07
5.00705e-05
1.75602e-06
5.01561e-05
2.92558e-06
5.0273e-05
4.10596e-06
5.04204e-05
5.30392e-06
5.05981e-05
6.5246e-06
5.08075e-05
7.77161e-06
5.10511e-05
9.04701e-06
5.13333e-05
1.03512e-05
5.16594e-05
1.16829e-05
5.20362e-05
1.30382e-05
5.24711e-05
1.44105e-05
5.29716e-05
1.57894e-05
5.35441e-05
1.71594e-05
5.4192e-05
1.84994e-05
5.49135e-05
1.97811e-05
5.56986e-05
2.09693e-05
5.65266e-05
2.20224e-05
5.73644e-05
2.28959e-05
2.35468e-05
5.81678e-05
5.00214e-05
5.66846e-07
5.00843e-05
1.69312e-06
5.01859e-05
2.82397e-06
5.03231e-05
3.96881e-06
5.04932e-05
5.13376e-06
5.0695e-05
6.32285e-06
5.09282e-05
7.53835e-06
5.11943e-05
8.78094e-06
5.14958e-05
1.00497e-05
5.18367e-05
1.1342e-05
5.22217e-05
1.26532e-05
5.26561e-05
1.39761e-05
5.31452e-05
1.53003e-05
5.36931e-05
1.66115e-05
5.43016e-05
1.78909e-05
5.49682e-05
1.91146e-05
5.56844e-05
2.02531e-05
5.64338e-05
2.1273e-05
5.71913e-05
2.21384e-05
2.28144e-05
5.79238e-05
5.00254e-05
5.41489e-07
5.00993e-05
1.61917e-06
5.02171e-05
2.70616e-06
5.03736e-05
3.81229e-06
5.05646e-05
4.94279e-06
5.07872e-05
6.10026e-06
5.10401e-05
7.28544e-06
5.13234e-05
8.49759e-06
5.16386e-05
9.73452e-06
5.19881e-05
1.09926e-05
5.2375e-05
1.22663e-05
5.28029e-05
1.35481e-05
5.32752e-05
1.48279e-05
5.37944e-05
1.60924e-05
5.43607e-05
1.73246e-05
5.49717e-05
1.85036e-05
5.56201e-05
1.96048e-05
5.62929e-05
2.06001e-05
5.69713e-05
2.14601e-05
2.21555e-05
5.76302e-05
5.00303e-05
5.1121e-07
5.01168e-05
1.53261e-06
5.02517e-05
2.57129e-06
5.04271e-05
3.63692e-06
5.06369e-05
4.73294e-06
5.08772e-05
5.85996e-06
5.11457e-05
7.01695e-06
5.14416e-05
8.20166e-06
5.17654e-05
9.41075e-06
5.21183e-05
1.06397e-05
5.25023e-05
1.18824e-05
5.29193e-05
1.31311e-05
5.33712e-05
1.4376e-05
5.38592e-05
1.56044e-05
5.43827e-05
1.6801e-05
5.49389e-05
1.79473e-05
5.55218e-05
1.90218e-05
5.61213e-05
2.00007e-05
5.67229e-05
2.08585e-05
2.15703e-05
5.73081e-05
5.0037e-05
4.74219e-07
5.01386e-05
1.43099e-06
5.02916e-05
2.41835e-06
5.0485e-05
3.44353e-06
5.07113e-05
4.50661e-06
5.09658e-05
5.60545e-06
5.12457e-05
6.73701e-06
5.15498e-05
7.89757e-06
5.18778e-05
9.08278e-06
5.22301e-05
1.02874e-05
5.26074e-05
1.1505e-05
5.30107e-05
1.27278e-05
5.34406e-05
1.39461e-05
5.38971e-05
1.5148e-05
5.4379e-05
1.63192e-05
5.48833e-05
1.7443e-05
5.54049e-05
1.85002e-05
5.59358e-05
1.94697e-05
5.64651e-05
2.03292e-05
2.10563e-05
5.69791e-05
5.00475e-05
4.26704e-07
5.0167e-05
1.31152e-06
5.03379e-05
2.24739e-06
5.0547e-05
3.23447e-06
5.07861e-05
4.2675e-06
5.10505e-05
5.34103e-06
5.13375e-05
6.45e-06
5.16457e-05
7.58944e-06
5.19742e-05
8.75423e-06
5.23229e-05
9.93869e-06
5.26917e-05
1.11362e-05
5.30805e-05
1.23391e-05
5.34888e-05
1.35377e-05
5.39158e-05
1.4721e-05
5.43597e-05
1.58753e-05
5.48174e-05
1.69853e-05
5.52844e-05
1.80333e-05
5.57543e-05
1.89998e-05
5.62188e-05
1.98647e-05
2.06072e-05
5.66679e-05
5.00647e-05
3.61987e-07
5.02026e-05
1.1736e-06
5.03881e-05
2.06195e-06
5.06076e-05
3.01495e-06
5.0854e-05
4.02107e-06
5.11233e-05
5.07172e-06
5.14132e-05
6.16019e-06
5.17219e-05
7.28065e-06
5.20487e-05
8.42749e-06
5.23925e-05
9.59481e-06
5.27528e-05
1.0776e-05
5.31285e-05
1.19633e-05
5.35185e-05
1.31477e-05
5.39212e-05
1.43183e-05
5.43341e-05
1.54624e-05
5.47542e-05
1.65652e-05
5.51772e-05
1.76102e-05
5.5598e-05
1.85791e-05
5.60101e-05
1.94526e-05
2.02113e-05
5.6406e-05
5.00809e-05
5.02335e-05
5.04258e-05
5.06488e-05
5.08972e-05
5.11674e-05
5.14573e-05
5.17652e-05
5.20899e-05
5.24301e-05
5.27847e-05
5.31523e-05
5.35311e-05
5.3919e-05
5.43134e-05
5.47109e-05
5.51077e-05
5.54988e-05
5.5879e-05
5.62423e-05
1.92311e-05
1.56651e-05
1.18683e-05
7.36278e-06
8.3136e-06
3.55473e-06
6.44444e-06
1.86916e-06
5.3587e-06
1.08574e-06
4.6635e-06
6.95205e-07
4.17956e-06
4.83936e-07
3.82111e-06
3.58456e-07
3.54449e-06
2.76613e-07
3.32581e-06
2.18684e-07
3.15091e-06
1.74898e-07
3.01084e-06
1.40067e-07
2.89956e-06
1.11285e-07
2.81263e-06
8.693e-08
2.74639e-06
6.62379e-08
2.69726e-06
4.91307e-08
2.661e-06
3.62614e-08
2.63202e-06
2.89814e-08
2.60522e-06
2.67993e-08
2.22801e-08
3.61518e-05
2.29758e-05
2.88676e-05
1.46469e-05
2.32955e-05
9.1269e-06
1.93316e-05
5.83306e-06
1.65308e-05
3.88656e-06
1.45122e-05
2.71377e-06
1.30147e-05
1.98144e-06
1.18715e-05
1.50165e-06
1.09777e-05
1.1704e-06
1.02666e-05
9.29781e-07
9.69479e-06
7.46709e-07
9.23318e-06
6.01682e-07
8.86151e-06
4.82953e-07
8.56492e-06
3.83524e-07
8.33154e-06
2.99612e-07
8.15081e-06
2.29862e-07
8.01209e-06
1.74986e-07
7.90394e-06
1.3713e-07
7.81516e-06
1.15581e-07
1.00894e-07
4.49169e-05
2.64258e-05
3.9814e-05
1.97498e-05
3.47074e-05
1.42335e-05
3.03093e-05
1.02312e-05
2.67422e-05
7.45364e-06
2.39086e-05
5.5473e-06
2.1662e-05
4.22805e-06
1.98687e-05
3.29495e-06
1.84239e-05
2.61527e-06
1.72498e-05
2.10382e-06
1.62904e-05
1.70611e-06
1.5505e-05
1.3871e-06
1.48637e-05
1.12426e-06
1.43439e-05
9.03378e-07
1.39273e-05
7.16161e-07
1.35983e-05
5.58888e-07
1.33417e-05
4.31588e-07
1.31418e-05
3.36959e-07
1.29818e-05
2.75611e-07
2.39927e-07
5.01855e-05
2.80086e-05
4.6919e-05
2.30163e-05
4.29424e-05
1.82101e-05
3.89793e-05
1.41943e-05
3.53829e-05
1.10501e-05
3.22688e-05
8.66143e-06
2.96329e-05
6.86389e-06
2.74233e-05
5.50458e-06
2.55764e-05
4.46212e-06
2.40334e-05
3.6469e-06
2.27445e-05
2.995e-06
2.16699e-05
2.46169e-06
2.0778e-05
2.01618e-06
2.00434e-05
1.6379e-06
1.94454e-05
1.31417e-06
1.89656e-05
1.03869e-06
1.85866e-05
8.1066e-07
1.82898e-05
6.33689e-07
1.80539e-05
5.11524e-07
4.42075e-07
5.35795e-05
2.85834e-05
5.16308e-05
2.4965e-05
4.87898e-05
2.10511e-05
4.55791e-05
1.74051e-05
4.23661e-05
1.42631e-05
3.93588e-05
1.16687e-05
3.66507e-05
9.57196e-06
3.42663e-05
7.88902e-06
3.21944e-05
6.53399e-06
3.0409e-05
5.43232e-06
2.88798e-05
4.52414e-06
2.7578e-05
3.76357e-06
2.64775e-05
3.11667e-06
2.55559e-05
2.55946e-06
2.47937e-05
2.0764e-06
2.41729e-05
1.65945e-06
2.36761e-05
1.3075e-06
2.32839e-05
1.02591e-06
2.2972e-05
8.23431e-07
7.07446e-07
5.58201e-05
2.85701e-05
5.4783e-05
2.60021e-05
5.28926e-05
2.29415e-05
5.04723e-05
1.98253e-05
4.78182e-05
1.69172e-05
4.51471e-05
1.43398e-05
4.2596e-05
1.21231e-05
4.02394e-05
1.02457e-05
3.81098e-05
8.66361e-06
3.62145e-05
7.32758e-06
3.45473e-05
6.19135e-06
3.30954e-05
5.21548e-06
3.18437e-05
4.36835e-06
3.07769e-05
3.62627e-06
2.98801e-05
2.97325e-06
2.91385e-05
2.401e-06
2.85368e-05
1.9092e-06
2.80566e-05
1.50609e-06
2.76728e-05
1.20724e-06
1.03329e-06
5.73014e-05
2.82037e-05
5.68818e-05
2.64217e-05
5.57265e-05
2.40968e-05
5.40129e-05
2.15389e-05
5.19486e-05
1.89814e-05
4.97184e-05
1.657e-05
4.74633e-05
1.43782e-05
4.528e-05
1.2429e-05
4.32284e-05
1.07152e-05
4.13419e-05
9.21408e-06
3.96359e-05
7.89733e-06
3.81147e-05
6.73668e-06
3.67759e-05
5.7071e-06
3.56137e-05
4.78851e-06
3.462e-05
3.96695e-06
3.37853e-05
3.23565e-06
3.30981e-05
2.59641e-06
3.25426e-05
2.06156e-06
3.20948e-05
1.65511e-06
1.41427e-06
5.82539e-05
2.7627e-05
5.82461e-05
2.64296e-05
5.7635e-05
2.47078e-05
5.65038e-05
2.26702e-05
5.4984e-05
2.05012e-05
5.3215e-05
1.8339e-05
5.13205e-05
1.62728e-05
4.93984e-05
1.43511e-05
4.75206e-05
1.2593e-05
4.57362e-05
1.09985e-05
4.40766e-05
9.55689e-06
4.25605e-05
8.25281e-06
4.11975e-05
7.07007e-06
3.99915e-05
5.99452e-06
3.89423e-05
5.01622e-06
3.80464e-05
4.1315e-06
3.72973e-05
3.34555e-06
3.6683e-05
2.67586e-06
3.61819e-05
2.15621e-06
1.84288e-06
5.88231e-05
2.69317e-05
5.9084e-05
2.61687e-05
5.88636e-05
2.49282e-05
5.81888e-05
2.33449e-05
5.71346e-05
2.15555e-05
5.57971e-05
1.96764e-05
5.42743e-05
1.77955e-05
5.26535e-05
1.59719e-05
5.10065e-05
1.42401e-05
4.93886e-05
1.26164e-05
4.78405e-05
1.11049e-05
4.6391e-05
9.70233e-06
4.50593e-05
8.40174e-06
4.38578e-05
7.19603e-06
4.27936e-05
6.08048e-06
4.18694e-05
5.05568e-06
4.10838e-05
4.13115e-06
4.04293e-05
3.33036e-06
3.98878e-05
2.69768e-06
2.31001e-06
5.91082e-05
2.61792e-05
5.95375e-05
2.57394e-05
5.95888e-05
2.48769e-05
5.9258e-05
2.36756e-05
5.85817e-05
2.22318e-05
5.76209e-05
2.06372e-05
5.64472e-05
1.89692e-05
5.51321e-05
1.7287e-05
5.37399e-05
1.56322e-05
5.23254e-05
1.40309e-05
5.09324e-05
1.24979e-05
4.95952e-05
1.10396e-05
4.83393e-05
9.65764e-06
4.71834e-05
8.35189e-06
4.61406e-05
7.12327e-06
4.52191e-05
5.97721e-06
4.44221e-05
4.9281e-06
4.37467e-05
4.00583e-06
4.31787e-05
3.26564e-06
2.80552e-06
5.91803e-05
2.54117e-05
5.9707e-05
2.52128e-05
5.99395e-05
2.46444e-05
5.98586e-05
2.37566e-05
5.94762e-05
2.26142e-05
5.88276e-05
2.12858e-05
5.79618e-05
1.9835e-05
5.69332e-05
1.83156e-05
5.57956e-05
1.67698e-05
5.45983e-05
1.52282e-05
5.33841e-05
1.37121e-05
5.21886e-05
1.22352e-05
5.10404e-05
1.08058e-05
4.99621e-05
9.43016e-06
4.89709e-05
8.11448e-06
4.8079e-05
6.86911e-06
4.72936e-05
5.71345e-06
4.66156e-05
4.68389e-06
4.6035e-05
3.84624e-06
3.31893e-06
5.90927e-05
2.46586e-05
5.96658e-05
2.46396e-05
6.00113e-05
2.42989e-05
6.01039e-05
2.3664e-05
5.99413e-05
2.27768e-05
5.95407e-05
2.16864e-05
5.89332e-05
2.04425e-05
5.81583e-05
1.90906e-05
5.72583e-05
1.76698e-05
5.62749e-05
1.62116e-05
5.52466e-05
1.47404e-05
5.42075e-05
1.32742e-05
5.31867e-05
1.18267e-05
5.22082e-05
1.04087e-05
5.12913e-05
9.03137e-06
5.04507e-05
7.70963e-06
4.96965e-05
6.4677e-06
4.90323e-05
5.34809e-06
4.84521e-05
4.42644e-06
3.84001e-06
5.8886e-05
2.39405e-05
5.94691e-05
2.40565e-05
5.98766e-05
2.38914e-05
6.00824e-05
2.34583e-05
6.00766e-05
2.27826e-05
5.98649e-05
2.18981e-05
5.94655e-05
2.08418e-05
5.89053e-05
1.96508e-05
5.82159e-05
1.83591e-05
5.7431e-05
1.69965e-05
5.65834e-05
1.5588e-05
5.57038e-05
1.41539e-05
5.48193e-05
1.27111e-05
5.39535e-05
1.12744e-05
5.31262e-05
9.85869e-06
5.2353e-05
8.48285e-06
5.16452e-05
7.17548e-06
5.10086e-05
5.98466e-06
5.04403e-05
4.99475e-06
4.35935e-06
5.85929e-05
2.32714e-05
5.916e-05
2.34893e-05
5.95917e-05
2.34597e-05
5.98638e-05
2.31862e-05
5.99634e-05
2.2683e-05
5.98893e-05
2.19721e-05
5.96508e-05
2.10803e-05
5.92651e-05
2.00365e-05
5.87551e-05
1.88692e-05
5.81465e-05
1.76051e-05
5.74661e-05
1.62684e-05
5.67399e-05
1.48801e-05
5.5992e-05
1.3459e-05
5.52441e-05
1.20224e-05
5.45146e-05
1.05881e-05
5.3819e-05
9.17846e-06
5.31687e-05
7.82579e-06
5.25704e-05
6.58297e-06
5.20235e-05
5.54167e-06
4.86877e-06
5.82409e-05
2.26607e-05
5.87739e-05
2.29563e-05
5.92024e-05
2.30312e-05
5.95054e-05
2.28833e-05
5.96696e-05
2.25188e-05
5.96903e-05
2.19514e-05
5.95711e-05
2.11996e-05
5.93223e-05
2.02853e-05
5.89595e-05
1.92319e-05
5.85019e-05
1.80628e-05
5.79702e-05
1.68001e-05
5.73855e-05
1.54648e-05
5.67681e-05
1.40764e-05
5.61366e-05
1.26538e-05
5.55075e-05
1.12172e-05
5.48945e-05
9.7914e-06
5.43084e-05
8.41192e-06
5.37557e-05
7.13564e-06
5.32374e-05
6.06e-06
5.36172e-06
5.78554e-05
2.21133e-05
5.83427e-05
2.24691e-05
5.87489e-05
2.2625e-05
5.90568e-05
2.25753e-05
5.92544e-05
2.23212e-05
5.93357e-05
2.18701e-05
5.93009e-05
2.12344e-05
5.91555e-05
2.04306e-05
5.89099e-05
1.94775e-05
5.85775e-05
1.83952e-05
5.81738e-05
1.72038e-05
5.7715e-05
1.59236e-05
5.72174e-05
1.45741e-05
5.6696e-05
1.31752e-05
5.61646e-05
1.17486e-05
5.56347e-05
1.03213e-05
5.51153e-05
8.9313e-06
5.46123e-05
7.63861e-06
5.41274e-05
6.54498e-06
5.83374e-06
5.74621e-05
2.16303e-05
5.78976e-05
2.20335e-05
5.82699e-05
2.22527e-05
5.85654e-05
2.22798e-05
5.8774e-05
2.21126e-05
5.88899e-05
2.17542e-05
5.89114e-05
2.12128e-05
5.88414e-05
2.05007e-05
5.86861e-05
1.96329e-05
5.84544e-05
1.86268e-05
5.81573e-05
1.75009e-05
5.78068e-05
1.62741e-05
5.74149e-05
1.4966e-05
5.69932e-05
1.35969e-05
5.65523e-05
1.21895e-05
5.61013e-05
1.07723e-05
5.56471e-05
9.38545e-06
5.51944e-05
8.09132e-06
5.47447e-05
6.99467e-06
6.28233e-06
5.70902e-05
2.1208e-05
5.74739e-05
2.16499e-05
5.78075e-05
2.19191e-05
5.80809e-05
2.20064e-05
5.82862e-05
2.19073e-05
5.84184e-05
2.16221e-05
5.84753e-05
2.11559e-05
5.84578e-05
2.05182e-05
5.83694e-05
1.97213e-05
5.82157e-05
1.87805e-05
5.80039e-05
1.77127e-05
5.77421e-05
1.65359e-05
5.74389e-05
1.52693e-05
5.71024e-05
1.39333e-05
5.67405e-05
1.25515e-05
5.63595e-05
1.11533e-05
5.59647e-05
9.78031e-06
5.55591e-05
8.49687e-06
5.51433e-05
7.41052e-06
6.70611e-06
5.67775e-05
2.08365e-05
5.71162e-05
2.13111e-05
5.7414e-05
2.16213e-05
5.76637e-05
2.17568e-05
5.78593e-05
2.17116e-05
5.79968e-05
2.14845e-05
5.80741e-05
2.10787e-05
5.80909e-05
2.05013e-05
5.8049e-05
1.97633e-05
5.79514e-05
1.88781e-05
5.78026e-05
1.78615e-05
5.76076e-05
1.67308e-05
5.73721e-05
1.55048e-05
5.71015e-05
1.42039e-05
5.68013e-05
1.28517e-05
5.6476e-05
1.14785e-05
5.61293e-05
1.0127e-05
5.57639e-05
8.8623e-06
5.5381e-05
7.7934e-06
7.11026e-06
5.65823e-05
5.68926e-05
5.71672e-05
5.74005e-05
5.7588e-05
5.77264e-05
5.78136e-05
5.7849e-05
5.78331e-05
5.77676e-05
5.76553e-05
5.74993e-05
5.73034e-05
5.70716e-05
5.68076e-05
5.65153e-05
5.61985e-05
5.586e-05
5.55012e-05
)
;

boundaryField
{
    zeroGradPlanes
    {
        type            calculated;
        value           nonuniform List<scalar> 
80
(
-3.34084e-07
-1.2129e-06
-2.22335e-06
-3.33031e-06
-4.52428e-06
-5.80352e-06
-7.17234e-06
-8.64037e-06
-1.02223e-05
-1.19381e-05
-1.38129e-05
-1.58762e-05
-1.81593e-05
-2.0687e-05
-2.3459e-05
-2.64098e-05
-2.93232e-05
-3.16067e-05
-3.16928e-05
-2.6212e-05
2.58294e-06
7.73654e-06
1.28428e-05
1.78518e-05
2.27066e-05
2.7347e-05
3.17138e-05
3.57533e-05
3.94207e-05
4.26832e-05
4.55216e-05
4.7931e-05
4.9921e-05
5.15141e-05
5.27445e-05
5.36554e-05
5.42961e-05
5.47195e-05
5.49768e-05
5.5098e-05
2.81056e-07
1.02104e-06
1.86966e-06
2.79192e-06
3.77271e-06
4.80148e-06
5.87031e-06
6.97274e-06
8.10282e-06
9.25456e-06
1.04214e-05
1.15958e-05
1.27689e-05
1.39304e-05
1.5068e-05
1.61677e-05
1.72135e-05
1.81879e-05
1.90724e-05
1.98481e-05
2.04965e-05
2.10008e-05
2.13468e-05
2.15235e-05
2.15241e-05
2.13462e-05
2.09915e-05
2.0466e-05
1.97791e-05
1.89435e-05
1.79739e-05
1.68868e-05
1.57007e-05
1.44357e-05
1.31157e-05
1.17708e-05
1.04438e-05
9.2008e-06
8.15222e-06
7.51343e-06
)
;
    }
    inlet
    {
        type            calculated;
        value           nonuniform List<scalar> 
20
(
-5e-05
-5e-05
-5e-05
-5e-05
-5e-05
-5e-05
-5e-05
-5e-05
-5e-05
-5e-05
-5e-05
-5e-05
-5e-05
-5e-05
-5e-05
-5e-05
-5e-05
-5e-05
-5e-05
-5e-05
)
;
    }
    plate
    {
        type            calculated;
        value           uniform 0;
    }
    frontAndBack
    {
        type            empty;
        value           nonuniform 0();
    }
}


// ************************************************************************* //
