/*--------------------------------*- C++ -*----------------------------------*\
| =========                 |                                                 |
| \\      /  F ield         | OpenFOAM: The Open Source CFD Toolbox           |
|  \\    /   O peration     | Version:  v1906                                 |
|   \\  /    A nd           | Web:      www.OpenFOAM.com                      |
|    \\/     M anipulation  |                                                 |
\*---------------------------------------------------------------------------*/
FoamFile
{
    version     2.0;
    format      ascii;
    class       volVectorField;
    location    "0.2";
    object      U;
}
// * * * * * * * * * * * * * * * * * * * * * * * * * * * * * * * * * * * * * //

dimensions      [0 1 -1 0 0 0 0];


internalField   nonuniform List<vector> 
800
(
(0.999283 0.00746658 0)
(0.996694 0.0255122 0)
(0.992841 0.0458876 0)
(0.988292 0.0681741 0)
(0.983307 0.0921834 0)
(0.977947 0.117888 0)
(0.972238 0.145384 0)
(0.966189 0.174871 0)
(0.95979 0.20665 0)
(0.953004 0.24113 0)
(0.945772 0.278826 0)
(0.938005 0.320351 0)
(0.929558 0.366361 0)
(0.920217 0.417413 0)
(0.909673 0.473607 0)
(0.897217 0.533806 0)
(0.88059 0.594093 0)
(0.857543 0.644271 0)
(0.840476 0.656866 0)
(0.825141 0.559455 0)
(0.999489 0.00920906 0)
(0.997336 0.0289892 0)
(0.993798 0.0503583 0)
(0.989482 0.073295 0)
(0.984705 0.0977821 0)
(0.979567 0.123878 0)
(0.974121 0.151724 0)
(0.968396 0.181553 0)
(0.962404 0.213686 0)
(0.956147 0.248551 0)
(0.949617 0.286684 0)
(0.94281 0.32872 0)
(0.935728 0.375351 0)
(0.928396 0.427186 0)
(0.920921 0.484422 0)
(0.913486 0.546104 0)
(0.905926 0.608764 0)
(0.898546 0.6639 0)
(0.899634 0.689996 0)
(0.908068 0.630721 0)
(0.99968 0.0105841 0)
(0.998041 0.0320617 0)
(0.995042 0.0544708 0)
(0.991224 0.0780848 0)
(0.986922 0.103048 0)
(0.982281 0.129506 0)
(0.977391 0.157652 0)
(0.97232 0.187741 0)
(0.967126 0.220111 0)
(0.961872 0.255189 0)
(0.956641 0.293501 0)
(0.951565 0.335656 0)
(0.946854 0.382289 0)
(0.942852 0.433918 0)
(0.940138 0.490588 0)
(0.939626 0.551134 0)
(0.94243 0.611788 0)
(0.949821 0.663961 0)
(0.964738 0.689485 0)
(0.981149 0.650254 0)
(0.999793 0.011438 0)
(0.99858 0.0342365 0)
(0.996198 0.0575629 0)
(0.993053 0.0817951 0)
(0.989444 0.107171 0)
(0.985535 0.133903 0)
(0.981451 0.162219 0)
(0.977301 0.192393 0)
(0.973196 0.224757 0)
(0.969266 0.259716 0)
(0.965691 0.297744 0)
(0.962727 0.339363 0)
(0.960762 0.385068 0)
(0.960369 0.435155 0)
(0.962395 0.489364 0)
(0.968005 0.546176 0)
(0.97852 0.60159 0)
(0.994945 0.647416 0)
(1.01726 0.66901 0)
(1.03809 0.642921 0)
(0.999863 0.0120282 0)
(0.998996 0.0358565 0)
(0.99722 0.05997 0)
(0.994813 0.084755 0)
(0.992015 0.11049 0)
(0.98899 0.137424 0)
(0.985881 0.165807 0)
(0.982831 0.195916 0)
(0.979994 0.228065 0)
(0.977559 0.262617 0)
(0.975779 0.299971 0)
(0.975002 0.340531 0)
(0.97572 0.38462 0)
(0.978615 0.432304 0)
(0.984595 0.483049 0)
(0.994773 0.535141 0)
(1.01022 0.584761 0)
(1.03137 0.624895 0)
(1.05689 0.644473 0)
(1.0801 0.62898 0)
(0.999914 0.0124354 0)
(0.999338 0.0370166 0)
(0.998123 0.0617369 0)
(0.996451 0.0869557 0)
(0.994504 0.112957 0)
(0.992432 0.14 0)
(0.990384 0.168339 0)
(0.98852 0.198241 0)
(0.987024 0.229989 0)
(0.986125 0.263893 0)
(0.986119 0.300268 0)
(0.987402 0.339395 0)
(0.990504 0.381438 0)
(0.996113 0.426271 0)
(1.00508 0.473194 0)
(1.01831 0.520479 0)
(1.03655 0.564745 0)
(1.05975 0.600341 0)
(1.08609 0.619175 0)
(1.11011 0.61196 0)
(0.999954 0.0126861 0)
(0.999627 0.0377535 0)
(0.998918 0.062875 0)
(0.997943 0.088372 0)
(0.996833 0.114514 0)
(0.99572 0.141552 0)
(0.994745 0.169728 0)
(0.994075 0.199287 0)
(0.993906 0.230476 0)
(0.994483 0.263544 0)
(0.996118 0.298722 0)
(0.999217 0.336184 0)
(1.00429 0.375959 0)
(1.01198 0.41779 0)
(1.023 0.460908 0)
(1.03805 0.503694 0)
(1.05756 0.543288 0)
(1.08117 0.575281 0)
(1.10707 0.593833 0)
(1.13098 0.592824 0)
(0.999987 0.0128037 0)
(0.999874 0.0381152 0)
(0.999617 0.0634337 0)
(0.999284 0.0890419 0)
(0.998965 0.115186 0)
(0.998769 0.142095 0)
(0.998827 0.169992 0)
(0.999298 0.19909 0)
(1.00037 0.229596 0)
(1.0023 0.261699 0)
(1.00538 0.295557 0)
(1.00999 0.331249 0)
(1.01661 0.368707 0)
(1.02578 0.4076 0)
(1.03808 0.447154 0)
(1.05401 0.48593 0)
(1.07376 0.521581 0)
(1.09685 0.550723 0)
(1.12166 0.569145 0)
(1.14493 0.572682 0)
(1.00002 0.012808 0)
(1.00009 0.0381481 0)
(1.00023 0.0634719 0)
(1.00048 0.0890269 0)
(1.00088 0.115032 0)
(1.00154 0.141693 0)
(1.00255 0.169205 0)
(1.00407 0.197747 0)
(1.00627 0.227484 0)
(1.00938 0.258551 0)
(1.01367 0.291042 0)
(1.01949 0.324964 0)
(1.02725 0.360184 0)
(1.0374 0.396333 0)
(1.05037 0.432685 0)
(1.0665 0.467999 0)
(1.08584 0.500385 0)
(1.1079 0.527264 0)
(1.13129 0.545575 0)
(1.15357 0.552387 0)
(1.00004 0.0127145 0)
(1.00027 0.0378924 0)
(1.00077 0.0630458 0)
(1.00154 0.0883931 0)
(1.0026 0.114128 0)
(1.00402 0.140431 0)
(1.0059 0.167466 0)
(1.00835 0.195381 0)
(1.01152 0.224298 0)
(1.01563 0.254308 0)
(1.0209 0.285449 0)
(1.02765 0.317675 0)
(1.03619 0.350813 0)
(1.04689 0.384489 0)
(1.06008 0.418043 0)
(1.07596 0.450427 0)
(1.09451 0.480133 0)
(1.11524 0.505196 0)
(1.13706 0.523361 0)
(1.15812 0.532502 0)
(1.00006 0.0125359 0)
(1.00043 0.0373817 0)
(1.00125 0.0622059 0)
(1.00248 0.0872052 0)
(1.00413 0.112551 0)
(1.00624 0.138399 0)
(1.00887 0.164887 0)
(1.01213 0.192128 0)
(1.01613 0.220208 0)
(1.02105 0.249177 0)
(1.02709 0.27903 0)
(1.03449 0.309684 0)
(1.04352 0.340943 0)
(1.05445 0.372446 0)
(1.06752 0.403604 0)
(1.08286 0.433544 0)
(1.10038 0.461063 0)
(1.11966 0.484655 0)
(1.13984 0.502634 0)
(1.15951 0.513412 0)
(1.00008 0.0122817 0)
(1.00058 0.0366427 0)
(1.00169 0.0609949 0)
(1.00334 0.0855214 0)
(1.00551 0.110376 0)
(1.00822 0.135693 0)
(1.01152 0.161581 0)
(1.01546 0.188125 0)
(1.02015 0.215378 0)
(1.02571 0.243353 0)
(1.03231 0.272012 0)
(1.04015 0.301248 0)
(1.04942 0.330853 0)
(1.06033 0.360485 0)
(1.07305 0.389628 0)
(1.08763 0.417554 0)
(1.104 0.443301 0)
(1.12177 0.4657 0)
(1.14028 0.483469 0)
(1.15848 0.495392 0)
(1.00009 0.0119579 0)
(1.00072 0.035693 0)
(1.0021 0.0594441 0)
(1.00414 0.0833893 0)
(1.00679 0.107669 0)
(1.01003 0.132396 0)
(1.01389 0.157656 0)
(1.01841 0.183503 0)
(1.02364 0.20996 0)
(1.0297 0.237012 0)
(1.03669 0.264594 0)
(1.04477 0.29258 0)
(1.05408 0.320759 0)
(1.06479 0.348814 0)
(1.07698 0.376291 0)
(1.0907 0.40258 0)
(1.10583 0.426905 0)
(1.12209 0.448345 0)
(1.13894 0.465904 0)
(1.1556 0.478631 0)
(1.00011 0.0115658 0)
(1.00086 0.0345394 0)
(1.00251 0.0575713 0)
(1.00492 0.0808429 0)
(1.008 0.104484 0)
(1.01173 0.128586 0)
(1.01607 0.153208 0)
(1.02106 0.178379 0)
(1.02672 0.204094 0)
(1.03312 0.23031 0)
(1.04035 0.256943 0)
(1.04852 0.283853 0)
(1.05773 0.310831 0)
(1.06808 0.337583 0)
(1.07964 0.363708 0)
(1.09242 0.38869 0)
(1.1063 0.411892 0)
(1.12106 0.432576 0)
(1.13627 0.449951 0)
(1.15135 0.463253 0)
(1.00013 0.0111002 0)
(1.00102 0.0331743 0)
(1.00295 0.0553779 0)
(1.00572 0.0779017 0)
(1.00922 0.100861 0)
(1.01336 0.124325 0)
(1.01812 0.148324 0)
(1.02348 0.172859 0)
(1.02946 0.197897 0)
(1.03609 0.223376 0)
(1.04344 0.249193 0)
(1.05157 0.2752 0)
(1.06055 0.301192 0)
(1.07046 0.326893 0)
(1.08131 0.351947 0)
(1.09311 0.375911 0)
(1.10575 0.398251 0)
(1.11904 0.418362 0)
(1.13266 0.435598 0)
(1.14617 0.44933 0)
(1.00016 0.0105488 0)
(1.00122 0.0315777 0)
(1.00345 0.0528552 0)
(1.0066 0.0745795 0)
(1.01048 0.0968425 0)
(1.015 0.11968 0)
(1.02009 0.14309 0)
(1.02574 0.167043 0)
(1.03193 0.191483 0)
(1.03869 0.216328 0)
(1.04605 0.241463 0)
(1.05404 0.266732 0)
(1.06272 0.291935 0)
(1.07212 0.316814 0)
(1.08224 0.341048 0)
(1.09306 0.364247 0)
(1.10449 0.385953 0)
(1.11637 0.405657 0)
(1.12846 0.422816 0)
(1.14043 0.436896 0)
(1.00021 0.00989096 0)
(1.00148 0.0297249 0)
(1.00405 0.0500044 0)
(1.00758 0.0709131 0)
(1.01181 0.0924969 0)
(1.01664 0.114745 0)
(1.02199 0.137618 0)
(1.02783 0.161057 0)
(1.03416 0.184982 0)
(1.04095 0.209296 0)
(1.04825 0.233874 0)
(1.05605 0.258558 0)
(1.06438 0.283152 0)
(1.07324 0.307412 0)
(1.08263 0.331045 0)
(1.09251 0.353698 0)
(1.10281 0.374972 0)
(1.11338 0.394419 0)
(1.12404 0.411571 0)
(1.13455 0.425959 0)
(1.00029 0.00905384 0)
(1.00185 0.0275246 0)
(1.0048 0.0467707 0)
(1.00867 0.0668873 0)
(1.01319 0.0878372 0)
(1.01824 0.109549 0)
(1.02377 0.131942 0)
(1.02973 0.154929 0)
(1.0361 0.178413 0)
(1.04287 0.202285 0)
(1.05004 0.226414 0)
(1.05762 0.250643 0)
(1.06559 0.27478 0)
(1.07395 0.298594 0)
(1.08267 0.32181 0)
(1.0917 0.344106 0)
(1.10098 0.365118 0)
(1.11038 0.384444 0)
(1.11977 0.401661 0)
(1.12896 0.416347 0)
(1.00045 0.00781354 0)
(1.00238 0.0246681 0)
(1.00567 0.0428388 0)
(1.0098 0.0621796 0)
(1.01449 0.0825228 0)
(1.01966 0.103725 0)
(1.02526 0.125664 0)
(1.03126 0.148231 0)
(1.03762 0.171316 0)
(1.04433 0.194803 0)
(1.05137 0.218559 0)
(1.05873 0.242429 0)
(1.0664 0.266227 0)
(1.07433 0.289734 0)
(1.0825 0.312688 0)
(1.09085 0.33479 0)
(1.0993 0.3557 0)
(1.10777 0.375045 0)
(1.11614 0.392432 0)
(1.12426 0.407464 0)
(1.00061 0.00630943 0)
(1.00287 0.0215975 0)
(1.00636 0.0388126 0)
(1.01059 0.0574868 0)
(1.01534 0.0773168 0)
(1.02054 0.098094 0)
(1.02615 0.119664 0)
(1.03214 0.141899 0)
(1.03847 0.16468 0)
(1.04512 0.187887 0)
(1.05208 0.211388 0)
(1.0593 0.23503 0)
(1.06678 0.258634 0)
(1.07445 0.281989 0)
(1.08229 0.304847 0)
(1.09023 0.326922 0)
(1.09819 0.347892 0)
(1.1061 0.367401 0)
(1.11384 0.385076 0)
(1.12131 0.400534 0)
(0.467711 0.221169 0)
(0.296612 0.0865719 0)
(0.194998 0.0345765 0)
(0.143003 0.0148292 0)
(0.115562 0.00708044 0)
(0.0989012 0.00386667 0)
(0.0876415 0.00242757 0)
(0.0794928 0.0017057 0)
(0.0732997 0.00128767 0)
(0.0684412 0.00100872 0)
(0.0645648 0.000800445 0)
(0.0614546 0.000632323 0)
(0.0589689 0.000489712 0)
(0.0570081 0.000365749 0)
(0.0554948 0.000258626 0)
(0.0543604 0.000171058 0)
(0.0535294 0.000111743 0)
(0.0528887 9.50054e-05 0)
(0.0523142 0.000112988 0)
(0.0519622 9.40287e-05 0)
(0.794555 0.409829 0)
(0.647484 0.229146 0)
(0.515228 0.125229 0)
(0.419984 0.071501 0)
(0.354212 0.0436672 0)
(0.307498 0.0286805 0)
(0.27326 0.0201396 0)
(0.247444 0.0149152 0)
(0.227459 0.0114707 0)
(0.211664 0.00903595 0)
(0.199005 0.00720858 0)
(0.188788 0.00576781 0)
(0.18054 0.00458779 0)
(0.173922 0.00359727 0)
(0.168676 0.00276091 0)
(0.164588 0.00207085 0)
(0.161453 0.00154465 0)
(0.159012 0.00121802 0)
(0.15699 0.00107212 0)
(0.155757 0.000932535 0)
(0.942275 0.50598 0)
(0.851249 0.352053 0)
(0.743521 0.236804 0)
(0.646339 0.160312 0)
(0.56676 0.111184 0)
(0.503397 0.0796564 0)
(0.453249 0.0590442 0)
(0.413398 0.0451157 0)
(0.38144 0.0353157 0)
(0.355564 0.0281233 0)
(0.334458 0.0226255 0)
(0.317177 0.018265 0)
(0.303035 0.0146976 0)
(0.291521 0.0117142 0)
(0.282238 0.00919774 0)
(0.27486 0.00710093 0)
(0.269091 0.00543309 0)
(0.264567 0.00424135 0)
(0.260874 0.00351601 0)
(0.258602 0.00306651 0)
(1.0283 0.550958 0)
(0.977003 0.434986 0)
(0.900315 0.330143 0)
(0.818184 0.247513 0)
(0.741498 0.186186 0)
(0.674173 0.141821 0)
(0.616824 0.10985 0)
(0.56865 0.0865464 0)
(0.528379 0.0692043 0)
(0.49474 0.055961 0)
(0.466634 0.0455625 0)
(0.443171 0.0371708 0)
(0.423643 0.0302311 0)
(0.407489 0.0243847 0)
(0.394258 0.0194173 0)
(0.38357 0.0152266 0)
(0.375086 0.0118035 0)
(0.368376 0.00920769 0)
(0.362907 0.00747303 0)
(0.359497 0.00647878 0)
(1.084 0.569622 0)
(1.05789 0.485128 0)
(1.0074 0.397837 0)
(0.944569 0.320026 0)
(0.878905 0.255694 0)
(0.815985 0.204582 0)
(0.758558 0.164691 0)
(0.707607 0.133642 0)
(0.663138 0.109293 0)
(0.624703 0.0899263 0)
(0.591701 0.0742456 0)
(0.563524 0.0613008 0)
(0.539618 0.0504158 0)
(0.519499 0.0411272 0)
(0.502751 0.0331419 0)
(0.489011 0.0263101 0)
(0.477947 0.0206081 0)
(0.469105 0.0161205 0)
(0.461869 0.0129621 0)
(0.457292 0.0111629 0)
(1.12113 0.573753 0)
(1.11092 0.513276 0)
(1.08029 0.444022 0)
(1.03555 0.376053 0)
(0.983509 0.314754 0)
(0.929383 0.262129 0)
(0.876645 0.218175 0)
(0.827308 0.18192 0)
(0.782351 0.152073 0)
(0.742101 0.127373 0)
(0.706524 0.106725 0)
(0.675401 0.0892436 0)
(0.64844 0.0742491 0)
(0.625329 0.0612457 0)
(0.605764 0.0499053 0)
(0.589457 0.0400556 0)
(0.576133 0.031676 0)
(0.565357 0.0248965 0)
(0.556465 0.0199506 0)
(0.550763 0.0170975 0)
(1.14587 0.569089 0)
(1.14573 0.526667 0)
(1.12939 0.473466 0)
(1.09969 0.416825 0)
(1.06091 0.361845 0)
(1.01714 0.311411 0)
(0.971696 0.266722 0)
(0.926924 0.227896 0)
(0.884345 0.194468 0)
(0.844844 0.16573 0)
(0.808872 0.140929 0)
(0.776596 0.119374 0)
(0.748017 0.100481 0)
(0.723042 0.0837989 0)
(0.701523 0.0690159 0)
(0.683295 0.0559727 0)
(0.668173 0.0446775 0)
(0.655775 0.0353299 0)
(0.645431 0.028318 0)
(0.638713 0.0242027 0)
(1.16185 0.559095 0)
(1.16803 0.530124 0)
(1.16168 0.490297 0)
(1.1437 0.444642 0)
(1.11649 0.397348 0)
(1.08293 0.351351 0)
(1.04574 0.308386 0)
(1.00715 0.269258 0)
(0.968846 0.23414 0)
(0.932025 0.202836 0)
(0.897461 0.174967 0)
(0.865635 0.150096 0)
(0.836811 0.127803 0)
(0.811112 0.10774 0)
(0.788567 0.0896581 0)
(0.769144 0.0734467 0)
(0.752771 0.0591699 0)
(0.739147 0.0471208 0)
(0.727625 0.0378723 0)
(0.720054 0.032347 0)
(1.17135 0.546002 0)
(1.18139 0.527017 0)
(1.18186 0.497951 0)
(1.17264 0.462106 0)
(1.15491 0.422657 0)
(1.1305 0.382182 0)
(1.10143 0.342511 0)
(1.06959 0.304783 0)
(1.03659 0.269583 0)
(1.0037 0.237109 0)
(0.971871 0.207316 0)
(0.941776 0.180024 0)
(0.913887 0.155005 0)
(0.888507 0.132045 0)
(0.865823 0.110993 0)
(0.845939 0.0918132 0)
(0.828897 0.0746499 0)
(0.814482 0.0599095 0)
(0.802101 0.0483706 0)
(0.793881 0.0413601 0)
(1.17598 0.531273 0)
(1.18822 0.519705 0)
(1.19319 0.499134 0)
(1.19032 0.471649 0)
(1.18 0.439528 0)
(1.16328 0.404852 0)
(1.14158 0.3693 0)
(1.11634 0.334092 0)
(1.08897 0.300024 0)
(1.06066 0.267555 0)
(1.03239 0.236892 0)
(1.00493 0.20808 0)
(0.978893 0.181075 0)
(0.954697 0.155805 0)
(0.932656 0.132234 0)
(0.912988 0.110421 0)
(0.895837 0.0906012 0)
(0.881074 0.0733089 0)
(0.868171 0.0595401 0)
(0.859532 0.0510453 0)
(1.17691 0.515899 0)
(1.19021 0.509853 0)
(1.198 0.495912 0)
(1.19954 0.475345 0)
(1.19479 0.449718 0)
(1.18427 0.420617 0)
(1.16886 0.389458 0)
(1.14964 0.357388 0)
(1.12771 0.325268 0)
(1.10413 0.293691 0)
(1.07982 0.263036 0)
(1.05556 0.233516 0)
(1.032 0.205244 0)
(1.00963 0.178284 0)
(0.988864 0.152709 0)
(0.969988 0.12868 0)
(0.953231 0.106535 0)
(0.938534 0.0869362 0)
(0.92544 0.0710981 0)
(0.916619 0.0611928 0)
(1.17505 0.500572 0)
(1.1886 0.498645 0)
(1.19798 0.489843 0)
(1.20244 0.474893 0)
(1.2017 0.454826 0)
(1.19595 0.430798 0)
(1.18569 0.403934 0)
(1.17166 0.375235 0)
(1.15469 0.345525 0)
(1.13566 0.315444 0)
(1.11536 0.28546 0)
(1.09452 0.255903 0)
(1.07379 0.227004 0)
(1.05369 0.198939 0)
(1.03465 0.171886 0)
(1.01702 0.146101 0)
(1.00107 0.122021 0)
(0.986801 0.100438 0)
(0.973821 0.0827714 0)
(0.965047 0.0715921 0)
(1.17107 0.485776 0)
(1.18432 0.486931 0)
(1.19441 0.482098 0)
(1.20064 0.471648 0)
(1.20265 0.456228 0)
(1.20041 0.436644 0)
(1.19419 0.413755 0)
(1.18444 0.388383 0)
(1.17178 0.361267 0)
(1.15687 0.333027 0)
(1.14038 0.304166 0)
(1.12297 0.275078 0)
(1.1052 0.246076 0)
(1.08759 0.217424 0)
(1.07056 0.189386 0)
(1.0545 0.162304 0)
(1.03968 0.136708 0)
(1.02613 0.113508 0)
(1.01353 0.0943113 0)
(1.00501 0.0820437 0)
(1.16557 0.471847 0)
(1.17812 0.475322 0)
(1.18826 0.473548 0)
(1.19539 0.466669 0)
(1.19915 0.455062 0)
(1.19939 0.439266 0)
(1.19619 0.419909 0)
(1.18985 0.397644 0)
(1.18077 0.373097 0)
(1.16945 0.346837 0)
(1.15642 0.319359 0)
(1.14223 0.291087 0)
(1.12737 0.262381 0)
(1.11231 0.233567 0)
(1.09745 0.204978 0)
(1.08314 0.177029 0)
(1.06967 0.150332 0)
(1.05707 0.125902 0)
(1.04505 0.105506 0)
(1.03696 0.0923701 0)
(1.15902 0.459012 0)
(1.1706 0.464247 0)
(1.18034 0.464832 0)
(1.18775 0.460768 0)
(1.19246 0.452246 0)
(1.19432 0.439607 0)
(1.1933 0.423294 0)
(1.18955 0.403808 0)
(1.18335 0.381666 0)
(1.17504 0.357367 0)
(1.16504 0.331379 0)
(1.15377 0.304124 0)
(1.14165 0.275989 0)
(1.12908 0.24734 0)
(1.11639 0.218562 0)
(1.10391 0.190128 0)
(1.09191 0.162721 0)
(1.0804 0.137442 0)
(1.06913 0.116192 0)
(1.0616 0.102427 0)
(1.15187 0.447418 0)
(1.16233 0.454004 0)
(1.17136 0.456413 0)
(1.17858 0.454557 0)
(1.18369 0.4485 0)
(1.18649 0.438442 0)
(1.18694 0.424683 0)
(1.1851 0.4076 0)
(1.18113 0.387611 0)
(1.17528 0.365146 0)
(1.16783 0.340632 0)
(1.15913 0.314479 0)
(1.14948 0.287082 0)
(1.13922 0.258831 0)
(1.12862 0.230148 0)
(1.11796 0.201552 0)
(1.10747 0.173784 0)
(1.09711 0.148016 0)
(1.08668 0.126247 0)
(1.07981 0.112095 0)
(1.1446 0.437152 0)
(1.15387 0.44479 0)
(1.16203 0.448613 0)
(1.16877 0.448477 0)
(1.17385 0.444364 0)
(1.17712 0.436373 0)
(1.17849 0.424701 0)
(1.17798 0.409629 0)
(1.17569 0.391492 0)
(1.17177 0.37066 0)
(1.16642 0.347519 0)
(1.15988 0.32246 0)
(1.1524 0.295876 0)
(1.1442 0.268171 0)
(1.13552 0.239792 0)
(1.12657 0.211294 0)
(1.11752 0.183462 0)
(1.10831 0.157524 0)
(1.09875 0.135549 0)
(1.09257 0.121246 0)
(1.13774 0.428101 0)
(1.14586 0.436577 0)
(1.15309 0.441504 0)
(1.15921 0.442706 0)
(1.16403 0.44011 0)
(1.16743 0.433748 0)
(1.16932 0.423746 0)
(1.1697 0.410313 0)
(1.16862 0.393723 0)
(1.16617 0.374298 0)
(1.16247 0.352389 0)
(1.15769 0.328367 0)
(1.152 0.302618 0)
(1.14556 0.275552 0)
(1.13854 0.247632 0)
(1.13108 0.219441 0)
(1.12333 0.191798 0)
(1.11519 0.165973 0)
(1.10646 0.144088 0)
(1.10096 0.129915 0)
(1.13197 0.419762 0)
(1.13912 0.428987 0)
(1.14553 0.434862 0)
(1.15104 0.437186 0)
(1.15552 0.435854 0)
(1.15887 0.430851 0)
(1.16102 0.422254 0)
(1.16196 0.410225 0)
(1.16169 0.394991 0)
(1.16028 0.376838 0)
(1.15779 0.356087 0)
(1.15432 0.333093 0)
(1.14999 0.308231 0)
(1.1449 0.281914 0)
(1.13916 0.254612 0)
(1.13289 0.226925 0)
(1.12618 0.199698 0)
(1.11891 0.17423 0)
(1.11095 0.152695 0)
(1.10605 0.138996 0)
(1.12838 0.413405 0)
(1.13491 0.423353 0)
(1.1408 0.430091 0)
(1.1459 0.433406 0)
(1.15013 0.433165 0)
(1.15341 0.429321 0)
(1.15567 0.421919 0)
(1.1569 0.411083 0)
(1.15709 0.39701 0)
(1.15626 0.379955 0)
(1.15446 0.36022 0)
(1.15176 0.338142 0)
(1.14822 0.314091 0)
(1.14392 0.288474 0)
(1.13894 0.26177 0)
(1.13337 0.234587 0)
(1.12728 0.207785 0)
(1.12054 0.182685 0)
(1.11322 0.161495 0)
(1.10872 0.148092 0)
)
;

boundaryField
{
    zeroGradPlanes
    {
        type            zeroGradient;
    }
    inlet
    {
        type            fixedValue;
        value           uniform (1 0 0);
    }
    plate
    {
        type            noSlip;
    }
    frontAndBack
    {
        type            empty;
    }
}


// ************************************************************************* //
