/*--------------------------------*- C++ -*----------------------------------*\
| =========                 |                                                 |
| \\      /  F ield         | OpenFOAM: The Open Source CFD Toolbox           |
|  \\    /   O peration     | Version:  v1906                                 |
|   \\  /    A nd           | Web:      www.OpenFOAM.com                      |
|    \\/     M anipulation  |                                                 |
\*---------------------------------------------------------------------------*/
FoamFile
{
    version     2.0;
    format      ascii;
    class       volScalarField;
    location    "0.3";
    object      p;
}
// * * * * * * * * * * * * * * * * * * * * * * * * * * * * * * * * * * * * * //

dimensions      [0 2 -2 0 0 0 0];


internalField   nonuniform List<scalar> 
4800
(
1.38016e-10
-0.000167918
-5.95663e-05
-0.00014382
0.000110809
0.000170798
0.000330559
0.000523182
0.000473947
0.000851868
0.000993931
0.00092939
0.00114231
0.00125093
0.00138257
0.00181141
0.00231575
0.00273276
0.00303684
0.00326987
2.52984e-06
-0.000170964
-5.81571e-05
-0.000147316
0.000114166
0.000167286
0.000331422
0.000522257
0.000478781
0.000840639
0.00100082
0.000925286
0.00114744
0.00125239
0.00138481
0.00181115
0.00231203
0.00265656
0.00284355
0.00292611
2.8471e-06
-0.000173195
-5.84905e-05
-0.000148695
0.00011412
0.000167303
0.000331735
0.000522888
0.000479067
0.000834126
0.00100261
0.000927198
0.00114902
0.00125614
0.00138931
0.00180324
0.00227054
0.0025276
0.00264846
0.00269029
4.19226e-06
-0.000176334
-5.86084e-05
-0.000150387
0.000113569
0.00016856
0.000330045
0.000527406
0.000474962
0.000847272
0.000993503
0.000935929
0.00114635
0.0012625
0.00139093
0.00177829
0.00220979
0.00239019
0.00245309
0.00249141
4.45587e-06
-0.000179125
-5.94012e-05
-0.000150845
0.000111553
0.000171871
0.000325465
0.000534086
0.000467861
0.00085102
0.000986991
0.000940175
0.00114937
0.00126189
0.0013898
0.00173383
0.00212968
0.00225822
0.00225568
0.0022819
4.31659e-06
-0.000180586
-6.19141e-05
-0.000149723
0.000106499
0.000177837
0.000318388
0.000542923
0.000460842
0.00084801
0.000986746
0.000938005
0.00115715
0.00125198
0.00137626
0.00167923
0.00202513
0.00212736
0.00206755
0.00206856
3.2408e-06
-0.000181096
-6.58668e-05
-0.000147133
9.93585e-05
0.000185261
0.000309628
0.00055142
0.000457022
0.000838425
0.000994773
0.000930499
0.00116102
0.00123877
0.00134459
0.00162159
0.00190875
0.00198315
0.00189117
0.00186506
8.22234e-07
-0.000179398
-7.19034e-05
-0.000142821
8.94176e-05
0.000193899
0.000303274
0.000554075
0.000460933
0.000823033
0.00100001
0.000921184
0.0011585
0.00122068
0.00129592
0.00155983
0.00178721
0.00182402
0.00172185
0.00167518
-3.34597e-06
-0.000175273
-7.965e-05
-0.00013835
7.92533e-05
0.000199972
0.000299813
0.000552035
0.000467921
0.000807973
0.00100093
0.00091046
0.00114957
0.00119707
0.00122835
0.00149005
0.00167484
0.00165815
0.00154349
0.00149269
-9.69673e-06
-0.000168123
-8.89343e-05
-0.000134296
7.03084e-05
0.000201685
0.000300827
0.000546997
0.000470569
0.000798064
0.00100178
0.000888292
0.00112957
0.00117637
0.00114448
0.00140309
0.00157534
0.00149681
0.00135272
0.00131017
-1.85669e-05
-0.000156972
-9.80651e-05
-0.000133868
6.45118e-05
0.000198576
0.00030156
0.000545188
0.000469248
0.000785477
0.00100693
0.000855281
0.00108788
0.0011625
0.00105513
0.00128631
0.00148233
0.00135695
0.00115913
0.00111584
-3.02187e-05
-0.000143823
-0.000105161
-0.000138577
6.20016e-05
0.00019121
0.00029794
0.00054844
0.000464698
0.000758206
0.00101704
0.000824869
0.0010156
0.0011452
0.000984558
0.0011461
0.00137562
0.00124086
0.000977214
0.000907845
-4.44639e-05
-0.000129876
-0.00010753
-0.000149237
5.91891e-05
0.000188351
0.00028751
0.000553342
0.000469139
0.000714018
0.0010188
0.000810247
0.000915182
0.00109984
0.000934372
0.00100092
0.00124197
0.00113853
0.000823759
0.0007019
-6.06783e-05
-0.000117479
-0.000103574
-0.000163861
5.1106e-05
0.000191963
0.000270872
0.00055234
0.00048817
0.000653579
0.000994021
0.000809862
0.000814604
0.00102123
0.000891043
0.00086783
0.00108637
0.00103369
0.000698422
0.00051483
-7.78373e-05
-0.000108993
-9.26897e-05
-0.000178171
3.29313e-05
0.000200486
0.000254121
0.000536073
0.000512966
0.00060459
0.000938536
0.000804139
0.000725391
0.000916952
0.000841535
0.000752474
0.000918732
0.000914794
0.000591672
0.00035278
-9.47997e-05
-0.000106068
-7.70557e-05
-0.000185888
2.44535e-06
0.000206983
0.000246674
0.000501373
0.000531597
0.000573693
0.000860421
0.000777647
0.000644303
0.000797852
0.000782374
0.000658688
0.000749852
0.000777415
0.000492487
0.000215258
-0.000110342
-0.000109587
-6.16106e-05
-0.000182024
-3.97242e-05
0.000203383
0.000251211
0.000454709
0.0005301
0.000558787
0.000782424
0.00072908
0.000562308
0.000667115
0.000707912
0.000586287
0.000593258
0.000621962
0.000391608
9.88612e-05
-0.000123949
-0.000119288
-5.14149e-05
-0.000165496
-8.29971e-05
0.000180577
0.000262406
0.000415361
0.000505234
0.00053549
0.000708384
0.000670601
0.000478253
0.000525404
0.000609853
0.000525169
0.000469034
0.000461522
0.00027754
-1.09556e-06
-0.000135638
-0.000132666
-4.99188e-05
-0.000139305
-0.000114994
0.000134195
0.000265844
0.000389487
0.000466626
0.000496225
0.000633785
0.000606598
0.000398907
0.000378614
0.000480712
0.000458964
0.000378876
0.000316583
0.000150165
-9.38615e-05
-0.000145803
-0.000147416
-5.94056e-05
-0.00011144
-0.000129899
7.09921e-05
0.000242659
0.000373935
0.00043338
0.000442604
0.000545667
0.000533196
0.00032711
0.000241356
0.00032905
0.000365387
0.000305525
0.000201959
2.72136e-05
-0.00019172
-0.000155748
-0.000160188
-7.99721e-05
-9.00142e-05
-0.000124641
1.10029e-05
0.000188696
0.000344024
0.000408199
0.000393502
0.00044534
0.000437089
0.000256505
0.000124792
0.000173801
0.0002479
0.000219793
0.000109894
-7.84585e-05
-0.000296014
-0.000166862
-0.000170643
-0.000107217
-8.43367e-05
-0.000106057
-3.23397e-05
0.000108977
0.000282047
0.000382382
0.00036078
0.000348583
0.000318
0.00016475
2.3535e-05
3.64976e-05
0.000118607
0.000121972
1.97187e-05
-0.000172789
-0.000398071
-0.000180313
-0.000179261
-0.00013372
-9.70367e-05
-8.95446e-05
-5.33084e-05
2.94621e-05
0.000185214
0.000326987
0.000341306
0.000280715
0.000189531
4.24142e-05
-8.52947e-05
-8.61205e-05
-1.83535e-06
2.58934e-05
-6.89533e-05
-0.000268335
-0.000496625
-0.000196556
-0.000188
-0.000155875
-0.000126119
-8.97429e-05
-5.48271e-05
-3.24419e-05
6.37863e-05
0.000228555
0.000307576
0.000243571
8.89477e-05
-0.000100253
-0.000225761
-0.000214059
-0.000113508
-5.78747e-05
-0.00014549
-0.000356317
-0.000596199
-0.000215282
-0.000199917
-0.000173419
-0.000161354
-0.000112473
-5.66364e-05
-6.88806e-05
-5.14679e-05
8.64186e-05
0.000228896
0.000221552
3.19247e-05
-0.000225242
-0.000390824
-0.000376219
-0.000236579
-0.000135856
-0.000197915
-0.000416614
-0.000686334
-0.000235595
-0.000216873
-0.000188392
-0.000194325
-0.000158145
-7.69171e-05
-8.30923e-05
-0.000139618
-7.57087e-05
9.57921e-05
0.000171513
1.48726e-05
-0.000299086
-0.00054681
-0.000570234
-0.000404482
-0.000232807
-0.000234942
-0.000438287
-0.000743876
-0.00025659
-0.000239301
-0.000206498
-0.000222315
-0.000214887
-0.000123735
-9.84487e-05
-0.000194661
-0.000222554
-8.32987e-05
6.41214e-05
-4.19013e-06
-0.000318384
-0.000650669
-0.000765725
-0.000619147
-0.000385732
-0.000291156
-0.000437823
-0.000750552
-0.000278257
-0.000266842
-0.000232186
-0.000246161
-0.000269435
-0.000196521
-0.000136012
-0.000222802
-0.000332323
-0.000272479
-0.000100329
-6.84321e-05
-0.000311175
-0.000687048
-0.000913146
-0.000852411
-0.000601352
-0.000412304
-0.000457075
-0.00072035
-0.00030121
-0.000297435
-0.000266528
-0.000271385
-0.000316866
-0.000282551
-0.000203388
-0.000252556
-0.000402161
-0.000435785
-0.000303026
-0.000194765
-0.000328197
-0.000673847
-0.000985082
-0.00104701
-0.000855316
-0.000610582
-0.000538435
-0.000700912
-0.000326581
-0.000329665
-0.000308833
-0.000304755
-0.000357827
-0.00036539
-0.00029738
-0.000304612
-0.00044542
-0.000555688
-0.000499446
-0.000374894
-0.000402468
-0.000661045
-0.000992407
-0.00116521
-0.0010869
-0.000859867
-0.000699863
-0.000745615
-0.000355463
-0.000363323
-0.000356018
-0.000348604
-0.000396943
-0.000438288
-0.000403888
-0.00038502
-0.00049027
-0.000635545
-0.000660973
-0.000573284
-0.000535832
-0.000688994
-0.000976998
-0.00121192
-0.00124861
-0.00110248
-0.000923112
-0.000870957
-0.000388386
-0.000398943
-0.000404688
-0.000401762
-0.000441697
-0.000501939
-0.000506064
-0.00048742
-0.000554054
-0.000693717
-0.000780716
-0.00075374
-0.000705954
-0.000773499
-0.000982202
-0.00121767
-0.00133756
-0.0012909
-0.00115345
-0.00105735
-0.000425286
-0.000437194
-0.000453441
-0.000461084
-0.00049522
-0.000560315
-0.00059697
-0.000597917
-0.000639337
-0.000753926
-0.000866554
-0.000898477
-0.00087622
-0.000899896
-0.00103176
-0.00122586
-0.00137795
-0.00141393
-0.001347
-0.00126244
-0.000465425
-0.000478378
-0.000502213
-0.000522275
-0.00055596
-0.000619341
-0.00067689
-0.000702901
-0.000737969
-0.000826593
-0.000938159
-0.00100905
-0.00102453
-0.00104112
-0.00112013
-0.00126222
-0.00140692
-0.00148913
-0.00148867
-0.00144458
-0.000507745
-0.00052211
-0.000551142
-0.000582452
-0.000620701
-0.000681731
-0.000749092
-0.000796762
-0.000838941
-0.000910738
-0.00100995
-0.00109651
-0.0011442
-0.00117387
-0.00122901
-0.00132898
-0.00144874
-0.00154438
-0.00158807
-0.00158743
-0.000551002
-0.000567207
-0.000599931
-0.000640185
-0.000685474
-0.00074611
-0.000817151
-0.000879571
-0.000933063
-0.000998886
-0.00108572
-0.00117402
-0.0012411
-0.00128801
-0.00133888
-0.00141379
-0.00150871
-0.0015994
-0.00166333
-0.00169526
-0.000593608
-0.000611908
-0.000647564
-0.000694303
-0.000746785
-0.000809331
-0.000882075
-0.00095322
-0.00101701
-0.00108361
-0.00116261
-0.00124724
-0.00132258
-0.00138305
-0.00143834
-0.0015027
-0.00158019
-0.00166086
-0.00172989
-0.00177939
-0.000633567
-0.000653902
-0.000692137
-0.000743366
-0.000801909
-0.000867739
-0.000941624
-0.00101766
-0.00108963
-0.00115999
-0.00123524
-0.00131532
-0.00139269
-0.00146103
-0.00152243
-0.00158455
-0.00165253
-0.00172418
-0.00179208
-0.00184959
-0.000669027
-0.000690739
-0.000730791
-0.000784739
-0.000847574
-0.000916718
-0.000991717
-0.00106988
-0.00114685
-0.00122144
-0.00129634
-0.00137314
-0.00144944
-0.00152142
-0.00158791
-0.00165122
-0.00171447
-0.0017786
-0.00184155
-0.00190007
-0.000699873
-0.000724719
-0.000768166
-0.000825775
-0.000893194
-0.000966818
-0.00104482
-0.00112531
-0.00120556
-0.00128389
-0.00136082
-0.00143738
-0.00151315
-0.00158643
-0.0016559
-0.00172179
-0.00178528
-0.00184723
-0.00190733
-0.00196455
0.00407532
0.00444274
0.00414678
0.00356271
0.00310753
0.00280208
0.00246571
0.00207214
0.00163541
0.0011691
0.000729232
0.000371076
5.40219e-05
-0.000328773
-0.000807534
-0.00132987
-0.00180439
-0.00223857
-0.00259413
-0.00279527
-0.00313853
-0.00391822
-0.00495874
-0.00595764
-0.00675075
-0.00741541
-0.00805214
-0.00848408
-0.00850694
-0.0082666
-0.00808333
-0.00790122
-0.00747989
-0.00704941
-0.00686987
-0.00673287
-0.00654313
-0.00645453
-0.00645602
-0.00649869
-0.00657755
-0.00665441
-0.00677325
-0.00691632
-0.00695034
-0.0069322
-0.00696849
-0.00696103
-0.00691092
-0.00698789
-0.00713484
-0.00714903
-0.00707369
-0.00707936
-0.00715485
-0.00719571
-0.00719733
-0.00721048
-0.00723922
-0.00726487
-0.00728705
-0.00731736
-0.00735681
-0.00740325
-0.00745392
-0.00750855
-0.00756617
-0.00762577
-0.00768861
-0.00775309
-0.00782221
-0.00789227
-0.00796735
-0.00804238
-0.00812182
-0.00820122
-0.00828353
-0.00836732
-0.00845178
-0.00854009
-0.00862697
-0.00871913
-0.00880969
-0.00890438
-0.00900004
-0.00909648
-0.00919719
-0.00929662
-0.00940014
-0.00950515
-0.00960918
-0.00971991
-0.00982613
-0.0099368
-0.0100502
-0.010155
-0.0102682
-0.0103781
-0.0104522
-0.0105305
0.00342242
0.00403939
0.00404395
0.00354775
0.00308693
0.00276758
0.00242655
0.00203626
0.00160586
0.00114154
0.000700369
0.000342006
2.55072e-05
-0.000352439
-0.000825147
-0.00134474
-0.00181137
-0.00224183
-0.00260737
-0.00281358
-0.00315369
-0.00392686
-0.00495618
-0.00593915
-0.00671721
-0.00737248
-0.0080069
-0.00844419
-0.0084761
-0.008242
-0.00806438
-0.00788831
-0.0074696
-0.00704028
-0.00686407
-0.00672819
-0.00653868
-0.00645131
-0.00645314
-0.00649624
-0.00657538
-0.00665141
-0.00677057
-0.00691433
-0.00694825
-0.00693003
-0.00696753
-0.00696055
-0.0069097
-0.00698706
-0.00713485
-0.00714895
-0.00707324
-0.00707923
-0.00715505
-0.00719602
-0.00719743
-0.00721072
-0.00723961
-0.00726527
-0.00728738
-0.00731763
-0.007357
-0.00740337
-0.00745398
-0.00750857
-0.00756615
-0.00762573
-0.00768856
-0.00775304
-0.00782218
-0.00789224
-0.00796734
-0.00804237
-0.00812182
-0.00820122
-0.00828353
-0.00836733
-0.00845177
-0.00854009
-0.00862696
-0.00871914
-0.00880969
-0.00890439
-0.00900004
-0.00909647
-0.00919719
-0.00929661
-0.00940014
-0.00950516
-0.00960918
-0.00971992
-0.00982613
-0.0099368
-0.0100503
-0.010155
-0.0102682
-0.0103781
-0.0104523
-0.0105306
0.00308807
0.00377824
0.00399466
0.00359776
0.00312884
0.00277768
0.00241354
0.00201286
0.00158083
0.00111318
0.000665131
0.000303695
-1.5618e-05
-0.000391697
-0.000852734
-0.00136344
-0.00182007
-0.00223545
-0.00260662
-0.00283991
-0.00319835
-0.00395449
-0.00494502
-0.00588962
-0.00664055
-0.00727451
-0.00789145
-0.00832566
-0.0083817
-0.00818208
-0.00802221
-0.00785375
-0.00744731
-0.00702862
-0.00685634
-0.00672403
-0.0065392
-0.00645512
-0.00645768
-0.00649917
-0.00657701
-0.00665186
-0.0067681
-0.00690955
-0.0069433
-0.00692573
-0.00696405
-0.00695877
-0.00690924
-0.00698565
-0.00713171
-0.00714589
-0.00707173
-0.00707851
-0.00715399
-0.00719467
-0.00719641
-0.00721005
-0.00723912
-0.00726486
-0.00728714
-0.00731756
-0.00735703
-0.00740345
-0.00745409
-0.0075087
-0.0075663
-0.00762588
-0.0076887
-0.00775315
-0.00782226
-0.00789229
-0.00796738
-0.00804238
-0.00812183
-0.00820122
-0.00828353
-0.00836733
-0.00845177
-0.0085401
-0.00862696
-0.00871914
-0.00880969
-0.00890439
-0.00900004
-0.00909647
-0.00919719
-0.00929661
-0.00940014
-0.00950516
-0.00960918
-0.00971993
-0.00982614
-0.00993681
-0.0100503
-0.010155
-0.0102682
-0.0103782
-0.0104527
-0.010531
0.00280727
0.00348016
0.00383455
0.00356316
0.00311918
0.00275152
0.00237414
0.00196825
0.00153268
0.00106149
0.000609846
0.000249256
-6.96558e-05
-0.000439475
-0.000881366
-0.00138084
-0.00182734
-0.00222477
-0.0026108
-0.00288755
-0.00325822
-0.00397885
-0.0049182
-0.00582571
-0.00654998
-0.00716048
-0.00775758
-0.00818555
-0.00826862
-0.00810904
-0.00796652
-0.00780542
-0.00741678
-0.00701384
-0.0068461
-0.0067152
-0.00653482
-0.00645568
-0.00645889
-0.00649854
-0.00657612
-0.00664961
-0.00676063
-0.00689817
-0.00693265
-0.00691613
-0.00695495
-0.0069533
-0.00690744
-0.00698193
-0.00712405
-0.00713896
-0.00706854
-0.00707676
-0.00715131
-0.00719158
-0.00719407
-0.00720852
-0.00723803
-0.00726442
-0.00728712
-0.00731787
-0.00735743
-0.00740382
-0.00745439
-0.00750892
-0.00756647
-0.007626
-0.00768881
-0.00775325
-0.00782236
-0.00789237
-0.00796744
-0.00804243
-0.00812185
-0.00820124
-0.00828354
-0.00836734
-0.00845176
-0.0085401
-0.00862696
-0.00871915
-0.00880969
-0.00890439
-0.00900004
-0.00909648
-0.0091972
-0.00929662
-0.00940014
-0.00950517
-0.00960918
-0.00971994
-0.00982615
-0.00993684
-0.0100503
-0.0101551
-0.0102683
-0.0103783
-0.0104534
-0.0105316
0.00255379
0.00318124
0.00362861
0.0034978
0.00310723
0.00272683
0.00234054
0.00193817
0.00149965
0.00101574
0.000554742
0.000195713
-0.000120506
-0.000482481
-0.000906454
-0.00139705
-0.00183636
-0.00222163
-0.00262565
-0.00293989
-0.0033092
-0.00398696
-0.00488074
-0.00575478
-0.00645032
-0.00703481
-0.00761133
-0.00803386
-0.00814301
-0.00802402
-0.0079024
-0.00775228
-0.00738373
-0.00699672
-0.0068315
-0.0067017
-0.00652769
-0.00645468
-0.00645937
-0.00649761
-0.00657474
-0.00664669
-0.00675179
-0.00688469
-0.00692035
-0.00690511
-0.00694397
-0.00694662
-0.0069055
-0.00697737
-0.00711432
-0.00713025
-0.00706455
-0.00707434
-0.00714747
-0.00718724
-0.00719078
-0.00720619
-0.00723619
-0.0072631
-0.00728655
-0.00731768
-0.00735749
-0.00740393
-0.00745449
-0.00750901
-0.00756657
-0.00762615
-0.00768901
-0.00775349
-0.00782259
-0.00789258
-0.00796761
-0.00804255
-0.00812194
-0.0082013
-0.00828358
-0.00836736
-0.00845177
-0.00854011
-0.00862696
-0.00871915
-0.00880969
-0.00890439
-0.00900004
-0.00909648
-0.0091972
-0.00929662
-0.00940015
-0.00950517
-0.00960919
-0.00971996
-0.00982618
-0.00993687
-0.0100503
-0.0101551
-0.0102684
-0.0103784
-0.0104543
-0.0105325
0.0023173
0.00290123
0.00340627
0.0034033
0.00308523
0.00270211
0.00230203
0.00190842
0.00147458
0.000973074
0.000493561
0.000134083
-0.000175367
-0.000529275
-0.000937677
-0.00141673
-0.00185185
-0.00222812
-0.0026384
-0.00297625
-0.00334438
-0.00398898
-0.004843
-0.00568176
-0.00634718
-0.00690577
-0.00746296
-0.00788136
-0.00801454
-0.00793379
-0.00783377
-0.00769661
-0.00734914
-0.00697725
-0.00681436
-0.00668724
-0.00652022
-0.00645331
-0.00645979
-0.0064964
-0.00657283
-0.00664349
-0.00674239
-0.00687014
-0.00690697
-0.00689306
-0.00693198
-0.00693931
-0.00690315
-0.00697196
-0.00710336
-0.00712059
-0.00706001
-0.00707135
-0.00714292
-0.00718228
-0.00718702
-0.00720347
-0.00723401
-0.00726157
-0.00728586
-0.00731755
-0.00735762
-0.00740412
-0.00745466
-0.00750915
-0.00756672
-0.00762633
-0.00768923
-0.00775372
-0.00782282
-0.00789278
-0.00796776
-0.00804266
-0.00812201
-0.00820134
-0.0082836
-0.00836737
-0.00845177
-0.00854011
-0.00862696
-0.00871915
-0.00880969
-0.00890439
-0.00900004
-0.00909648
-0.0091972
-0.00929662
-0.00940015
-0.00950518
-0.00960921
-0.00971997
-0.00982621
-0.0099369
-0.0100504
-0.0101552
-0.0102685
-0.0103785
-0.0104551
-0.0105334
0.00208618
0.0026368
0.00318028
0.00327961
0.00304011
0.00267112
0.00225419
0.00186593
0.00144962
0.000939215
0.000431171
6.36774e-05
-0.000235458
-0.00058054
-0.000971107
-0.00143447
-0.00186967
-0.00223714
-0.00264216
-0.00300175
-0.00338205
-0.00399945
-0.00480674
-0.00560515
-0.00624238
-0.00677779
-0.0073151
-0.00772704
-0.00788088
-0.00783486
-0.00775613
-0.00763497
-0.00731197
-0.00695689
-0.0067968
-0.00667173
-0.00651095
-0.00645039
-0.00645925
-0.00649437
-0.00657019
-0.0066397
-0.00673221
-0.00685444
-0.00689241
-0.0068802
-0.00691937
-0.00693125
-0.00689993
-0.0069657
-0.00709158
-0.00711023
-0.00705496
-0.00706791
-0.00713793
-0.00717692
-0.00718294
-0.0072005
-0.00723163
-0.00725988
-0.00728498
-0.00731727
-0.00735759
-0.00740421
-0.00745476
-0.00750924
-0.00756681
-0.00762645
-0.0076894
-0.00775393
-0.00782305
-0.007893
-0.00796795
-0.00804281
-0.00812212
-0.00820141
-0.00828365
-0.0083674
-0.00845179
-0.00854012
-0.00862697
-0.00871915
-0.00880969
-0.00890439
-0.00900004
-0.00909648
-0.00919721
-0.00929662
-0.00940016
-0.00950519
-0.00960923
-0.00971999
-0.00982626
-0.00993694
-0.0100505
-0.0101553
-0.0102687
-0.0103786
-0.010456
-0.0105344
0.00186526
0.00238373
0.00295246
0.00313347
0.00296727
0.0026281
0.00220211
0.00180907
0.00141835
0.00091746
0.000377201
-1.29296e-05
-0.000302904
-0.000634821
-0.00100574
-0.0014532
-0.00189194
-0.00225057
-0.00264461
-0.00303
-0.00342702
-0.00400666
-0.00475807
-0.00552118
-0.00613728
-0.00665001
-0.0071644
-0.00756831
-0.00774126
-0.00772813
-0.00767124
-0.00756911
-0.00727387
-0.00693676
-0.00677733
-0.00665264
-0.00649881
-0.00644591
-0.00645792
-0.00649163
-0.00656652
-0.00663493
-0.00672115
-0.00683755
-0.00687683
-0.00686676
-0.006906
-0.00692213
-0.00689591
-0.00695889
-0.00707919
-0.00709926
-0.00704947
-0.00706413
-0.00713257
-0.00717121
-0.00717859
-0.00719732
-0.00722907
-0.00725805
-0.00728401
-0.00731694
-0.00735757
-0.00740428
-0.00745483
-0.00750929
-0.00756687
-0.00762658
-0.0076896
-0.00775419
-0.00782332
-0.00789325
-0.00796815
-0.00804296
-0.00812222
-0.00820147
-0.00828368
-0.00836741
-0.00845179
-0.00854012
-0.00862697
-0.00871915
-0.00880969
-0.00890439
-0.00900005
-0.00909648
-0.00919721
-0.00929663
-0.00940017
-0.0095052
-0.00960925
-0.00972
-0.00982631
-0.00993698
-0.0100506
-0.0101554
-0.0102689
-0.0103788
-0.0104568
-0.0105354
0.00166348
0.00214165
0.00271598
0.00297112
0.00287521
0.00257104
0.00214377
0.00173875
0.00137009
0.000899645
0.000340091
-9.13589e-05
-0.0003835
-0.000695371
-0.00104538
-0.00147563
-0.00191512
-0.00226651
-0.00264992
-0.003058
-0.00346364
-0.00399775
-0.00469878
-0.0054397
-0.00603809
-0.00652268
-0.00701127
-0.00740807
-0.007599
-0.00761584
-0.00757923
-0.00749589
-0.00723082
-0.00691399
-0.0067552
-0.00663127
-0.00648539
-0.00644027
-0.0064553
-0.00648745
-0.00656137
-0.0066292
-0.00670932
-0.0068197
-0.0068605
-0.00685273
-0.00689172
-0.00691204
-0.00689134
-0.00695168
-0.00706619
-0.0070877
-0.0070436
-0.00706001
-0.0071268
-0.00716512
-0.00717397
-0.00719394
-0.00722631
-0.007256
-0.00728286
-0.00731648
-0.00735745
-0.00740423
-0.00745485
-0.00750934
-0.00756697
-0.00762674
-0.0076898
-0.00775442
-0.00782355
-0.00789346
-0.00796832
-0.00804309
-0.00812231
-0.00820153
-0.00828372
-0.00836744
-0.00845185
-0.00854013
-0.00862697
-0.00871915
-0.00880969
-0.00890439
-0.00900005
-0.00909647
-0.00919722
-0.00929663
-0.00940019
-0.00950521
-0.00960928
-0.00972002
-0.00982637
-0.00993702
-0.0100507
-0.0101555
-0.0102692
-0.010379
-0.0104576
-0.0105365
0.00148037
0.00191886
0.00247351
0.00279183
0.00277123
0.0024974
0.00207001
0.00165798
0.00130424
0.000874724
0.000319124
-0.00016342
-0.000478076
-0.000764697
-0.00108698
-0.00149586
-0.00193279
-0.00228697
-0.00266176
-0.00307726
-0.00348677
-0.00398576
-0.0046446
-0.00536296
-0.0059405
-0.00639332
-0.00685495
-0.00724576
-0.00745313
-0.00749599
-0.00747757
-0.00741358
-0.00718263
-0.00689068
-0.00673376
-0.006609
-0.00646935
-0.00643135
-0.00645016
-0.00648182
-0.00655543
-0.00662302
-0.00669702
-0.00680107
-0.0068432
-0.00683773
-0.00687651
-0.00690126
-0.00688629
-0.00694393
-0.00705252
-0.00707552
-0.00703723
-0.0070554
-0.00712053
-0.00715858
-0.00716897
-0.00719018
-0.0072232
-0.00725371
-0.00728154
-0.0073159
-0.00735725
-0.00740417
-0.00745488
-0.00750938
-0.00756702
-0.00762683
-0.00768997
-0.00775466
-0.00782382
-0.00789372
-0.00796855
-0.00804327
-0.00812244
-0.00820162
-0.00828377
-0.00836746
-0.00845185
-0.00854013
-0.00862698
-0.00871915
-0.0088097
-0.00890438
-0.00900006
-0.00909647
-0.00919723
-0.00929663
-0.0094002
-0.00950522
-0.00960931
-0.00972004
-0.00982645
-0.00993707
-0.0100508
-0.0101556
-0.0102694
-0.0103792
-0.0104584
-0.0105377
0.0013051
0.00172154
0.00223699
0.00259018
0.00265042
0.00241162
0.00198065
0.00156677
0.00122471
0.000830928
0.000303184
-0.000216877
-0.000574389
-0.000843956
-0.00112998
-0.0015124
-0.00195055
-0.00231917
-0.00267956
-0.00308353
-0.00350273
-0.00398365
-0.00459311
-0.0052755
-0.00583614
-0.0062643
-0.00669825
-0.0070817
-0.00730443
-0.00737086
-0.00736897
-0.00732444
-0.00712952
-0.00686546
-0.00671097
-0.00658383
-0.00644985
-0.00641978
-0.00644386
-0.00647579
-0.00654864
-0.00661573
-0.00668376
-0.00678121
-0.00682457
-0.00682189
-0.00686075
-0.00688977
-0.00688048
-0.00693542
-0.007038
-0.00706252
-0.00703021
-0.00705024
-0.00711368
-0.00715149
-0.00716353
-0.00718614
-0.00721991
-0.00725126
-0.00728009
-0.00731521
-0.00735695
-0.00740404
-0.00745473
-0.00750934
-0.00756703
-0.00762693
-0.00769015
-0.00775489
-0.00782405
-0.00789393
-0.00796871
-0.00804339
-0.00812251
-0.00820166
-0.0082838
-0.00836748
-0.00845186
-0.00854013
-0.00862698
-0.00871914
-0.0088097
-0.00890438
-0.00900006
-0.00909647
-0.00919724
-0.00929663
-0.00940022
-0.00950522
-0.00960936
-0.00972006
-0.00982653
-0.00993713
-0.0100509
-0.0101557
-0.0102697
-0.0103795
-0.0104592
-0.010539
0.00112125
0.00154312
0.00202203
0.00237363
0.00250242
0.00231612
0.00187847
0.00145788
0.00113307
0.000769682
0.000282526
-0.000248169
-0.000659407
-0.000937975
-0.00118351
-0.00152802
-0.00197044
-0.00235795
-0.00269715
-0.00308268
-0.00351751
-0.00398394
-0.00453194
-0.00517418
-0.00573201
-0.00614418
-0.00654507
-0.00691584
-0.0071528
-0.00724138
-0.00725356
-0.00722638
-0.00706792
-0.00683541
-0.00668694
-0.00655889
-0.00642981
-0.00640606
-0.00643488
-0.00646741
-0.00653977
-0.0066072
-0.00666989
-0.00676038
-0.00680484
-0.00680532
-0.0068442
-0.00687714
-0.00687356
-0.00692596
-0.00702258
-0.00704876
-0.00702263
-0.00704454
-0.00710628
-0.007144
-0.00715787
-0.0071819
-0.00721636
-0.00724854
-0.00727839
-0.00731431
-0.00735648
-0.00740379
-0.0074546
-0.00750929
-0.00756704
-0.00762701
-0.0076903
-0.0077551
-0.0078243
-0.00789419
-0.00796895
-0.00804358
-0.00812266
-0.00820176
-0.00828387
-0.00836751
-0.00845187
-0.00854013
-0.00862698
-0.00871914
-0.0088097
-0.00890437
-0.00900007
-0.00909646
-0.00919725
-0.00929663
-0.00940024
-0.00950523
-0.0096094
-0.00972009
-0.00982663
-0.00993719
-0.0100511
-0.0101558
-0.01027
-0.0103798
-0.01046
-0.0105402
0.000919837
0.00136892
0.00183698
0.00215869
0.00231684
0.00219897
0.00177215
0.0013348
0.00103042
0.00069854
0.000246299
-0.000270756
-0.0007276
-0.00104227
-0.00125361
-0.00154362
-0.00198263
-0.00239367
-0.00272102
-0.00308665
-0.00352437
-0.00397156
-0.00446609
-0.00507584
-0.00563366
-0.00602801
-0.00639109
-0.00674563
-0.00699644
-0.00710831
-0.00713291
-0.00711967
-0.00699852
-0.00680195
-0.00666251
-0.00653399
-0.00640782
-0.0063879
-0.00642152
-0.006457
-0.0065302
-0.00659803
-0.0066551
-0.00673814
-0.00678361
-0.00678772
-0.00682669
-0.0068633
-0.00686549
-0.00691571
-0.00700653
-0.00703438
-0.00701446
-0.00703834
-0.00709845
-0.00713609
-0.00715174
-0.00717718
-0.00721238
-0.00724548
-0.00727644
-0.00731324
-0.00735591
-0.00740348
-0.00745442
-0.00750914
-0.00756698
-0.00762705
-0.00769043
-0.00775531
-0.00782453
-0.0078944
-0.00796911
-0.00804369
-0.00812272
-0.00820179
-0.00828388
-0.00836751
-0.00845188
-0.00854013
-0.00862698
-0.00871913
-0.0088097
-0.00890436
-0.00900008
-0.00909645
-0.00919727
-0.00929663
-0.00940027
-0.00950525
-0.00960946
-0.00972012
-0.00982674
-0.00993727
-0.0100513
-0.010156
-0.0102703
-0.0103801
-0.0104607
-0.0105415
0.000708119
0.00118278
0.00167042
0.00195923
0.00210209
0.00204914
0.00166662
0.00120646
0.000909137
0.000615428
0.000193206
-0.000299518
-0.000777977
-0.00113957
-0.00134003
-0.00156661
-0.00198049
-0.00242293
-0.00276121
-0.00309692
-0.00351322
-0.00394927
-0.00441022
-0.00498426
-0.00553038
-0.00590534
-0.0062351
-0.0065764
-0.00684036
-0.00697425
-0.00700893
-0.00700537
-0.00692082
-0.0067622
-0.00663358
-0.00650713
-0.00638567
-0.00636808
-0.00640504
-0.00644401
-0.00651862
-0.00658695
-0.00663889
-0.00671474
-0.00676124
-0.00676915
-0.00680815
-0.00684827
-0.00685653
-0.00690488
-0.00698981
-0.00701921
-0.00700562
-0.0070315
-0.00708987
-0.00712741
-0.00714503
-0.00717206
-0.00720812
-0.00724219
-0.00727432
-0.007312
-0.00735515
-0.00740298
-0.0074541
-0.00750895
-0.00756689
-0.00762706
-0.00769053
-0.00775547
-0.00782473
-0.00789462
-0.00796933
-0.00804388
-0.00812287
-0.00820189
-0.00828395
-0.00836756
-0.0084519
-0.00854013
-0.00862698
-0.00871912
-0.00880971
-0.00890435
-0.00900008
-0.00909645
-0.00919728
-0.00929663
-0.0094003
-0.00950526
-0.00960952
-0.00972015
-0.00982686
-0.00993737
-0.0100515
-0.0101562
-0.0102706
-0.0103805
-0.0104615
-0.0105428
0.000502279
0.000980063
0.00150285
0.00178379
0.00188379
0.0018621
0.00154667
0.00107829
0.000767118
0.000516073
0.000131914
-0.000339652
-0.000815973
-0.00121776
-0.00143832
-0.00160756
-0.00196894
-0.00244189
-0.00281334
-0.00311192
-0.00349042
-0.00392721
-0.00436111
-0.00488493
-0.00541668
-0.00578423
-0.00608579
-0.00641173
-0.0066849
-0.00683672
-0.00687986
-0.00688373
-0.0068334
-0.00671455
-0.00660066
-0.00648014
-0.00636531
-0.00634691
-0.00638311
-0.00642545
-0.00650435
-0.00657527
-0.00662245
-0.00669042
-0.00673729
-0.00674916
-0.00678866
-0.00683239
-0.00684665
-0.00689306
-0.0069721
-0.00700311
-0.00699588
-0.00702376
-0.00708051
-0.00711822
-0.007138
-0.00716667
-0.00720355
-0.00723857
-0.00727184
-0.00731044
-0.00735416
-0.00740236
-0.0074537
-0.00750868
-0.00756672
-0.00762701
-0.0076906
-0.00775564
-0.00782495
-0.00789483
-0.00796949
-0.00804398
-0.00812292
-0.00820192
-0.00828389
-0.00836754
-0.00845189
-0.00854011
-0.00862698
-0.0087191
-0.00880971
-0.00890433
-0.00900009
-0.00909644
-0.0091973
-0.00929663
-0.00940033
-0.00950528
-0.00960959
-0.00972019
-0.00982698
-0.00993748
-0.0100517
-0.0101564
-0.0102709
-0.0103809
-0.0104622
-0.0105442
0.000313418
0.000768488
0.00131945
0.00162508
0.00168188
0.00164426
0.00139437
0.000951298
0.000615617
0.000396859
6.38872e-05
-0.000388287
-0.000852949
-0.00127894
-0.00153712
-0.00167062
-0.00196272
-0.00244271
-0.00286032
-0.00313806
-0.00346947
-0.00389937
-0.00430646
-0.00477792
-0.00530312
-0.00567497
-0.00594265
-0.00624227
-0.00652511
-0.00669762
-0.00674866
-0.00675758
-0.0067382
-0.00665979
-0.00656307
-0.0064499
-0.00634342
-0.00632466
-0.00635805
-0.00640262
-0.00648706
-0.00656243
-0.00660539
-0.00666465
-0.00671152
-0.00672816
-0.00676854
-0.00681526
-0.00683514
-0.00688
-0.00695344
-0.00698603
-0.00698523
-0.00701538
-0.00707071
-0.00710859
-0.00713048
-0.00716074
-0.00719844
-0.00723448
-0.00726904
-0.00730867
-0.00735301
-0.00740157
-0.00745313
-0.00750829
-0.00756649
-0.00762692
-0.00769062
-0.00775574
-0.00782509
-0.00789499
-0.00796966
-0.00804413
-0.00812305
-0.008202
-0.00828398
-0.00836756
-0.00845191
-0.0085401
-0.00862698
-0.00871908
-0.00880971
-0.00890431
-0.0090001
-0.00909643
-0.00919731
-0.00929664
-0.00940036
-0.0095053
-0.00960966
-0.00972025
-0.00982711
-0.00993762
-0.0100518
-0.0101567
-0.0102713
-0.0103814
-0.010463
-0.0105455
0.000143208
0.000557356
0.00111685
0.00146668
0.00150272
0.00141651
0.0012063
0.000814985
0.000465655
0.000258445
-1.83504e-05
-0.000441029
-0.000897431
-0.00133044
-0.00162183
-0.0017516
-0.00197544
-0.00242435
-0.00288839
-0.00317942
-0.00345761
-0.00385633
-0.00424925
-0.00468049
-0.00518883
-0.00556627
-0.00580299
-0.00606735
-0.00636299
-0.00656394
-0.00661906
-0.00662636
-0.00663439
-0.00659535
-0.00651779
-0.00641507
-0.00632086
-0.00630451
-0.00633238
-0.00637412
-0.00646303
-0.006547
-0.00658894
-0.00663872
-0.00668414
-0.00670557
-0.00674693
-0.00679633