/*--------------------------------*- C++ -*----------------------------------*\
| =========                 |                                                 |
| \\      /  F ield         | OpenFOAM: The Open Source CFD Toolbox           |
|  \\    /   O peration     | Version:  v1906                                 |
|   \\  /    A nd           | Web:      www.OpenFOAM.com                      |
|    \\/     M anipulation  |                                                 |
\*---------------------------------------------------------------------------*/
FoamFile
{
    version     2.0;
    format      ascii;
    class       surfaceScalarField;
    location    "0.3";
    object      phi;
}
// * * * * * * * * * * * * * * * * * * * * * * * * * * * * * * * * * * * * * //

dimensions      [0 3 -1 0 0 0 0];
oriented        oriented;


internalField   nonuniform List<scalar> 
9440
(
3.88185e-06
1.54263e-08
3.87528e-06
-3.98173e-08
3.88082e-06
1.05499e-07
3.87104e-06
-7.39907e-08
3.88188e-06
1.1839e-07
3.86781e-06
-1.00046e-07
3.87199e-06
-2.95678e-08
3.87229e-06
3.76624e-08
3.87387e-06
-2.46652e-08
3.86948e-06
-1.32273e-08
3.87057e-06
4.07374e-08
3.86883e-06
2.13607e-08
3.87034e-06
5.68654e-08
3.86981e-06
1.47754e-08
3.87005e-06
3.02583e-08
3.87244e-06
8.44847e-09
3.87289e-06
2.30694e-08
3.86724e-06
-6.9123e-09
3.85197e-06
2.34034e-08
2.45912e-08
3.83121e-06
4.18366e-06
1.76226e-08
4.18446e-06
-4.06155e-08
4.18411e-06
1.05848e-07
4.18063e-06
-7.05111e-08
4.18592e-06
1.13104e-07
4.17741e-06
-9.15368e-08
4.17695e-06
-2.91099e-08
4.18049e-06
3.41235e-08
4.18004e-06
-2.42182e-08
4.17593e-06
-9.11598e-09
4.17825e-06
3.84234e-08
4.17416e-06
2.54479e-08
4.17834e-06
5.2687e-08
4.17262e-06
2.0489e-08
4.1766e-06
2.62835e-08
4.17354e-06
1.1506e-08
4.17361e-06
2.30041e-08
4.16341e-06
3.28475e-09
4.15838e-06
2.8433e-08
3.33487e-08
4.14962e-06
4.51842e-06
1.92683e-08
4.51782e-06
-4.00157e-08
4.52004e-06
1.03628e-07
4.51556e-06
-6.60364e-08
4.52264e-06
1.0603e-07
4.51355e-06
-8.24533e-08
4.51523e-06
-3.07882e-08
4.51356e-06
3.57958e-08
4.51691e-06
-2.75748e-08
4.50874e-06
-9.39974e-10
4.51525e-06
3.19143e-08
4.50806e-06
3.26393e-08
4.51664e-06
4.41071e-08
4.50829e-06
2.8835e-08
4.51475e-06
1.98232e-08
4.50763e-06
1.86239e-08
4.51023e-06
2.04067e-08
4.49968e-06
1.38328e-08
4.49728e-06
3.0833e-08
4.06407e-08
4.48999e-06
4.88134e-06
1.88751e-08
4.87845e-06
-3.71244e-08
4.88368e-06
9.83931e-08
4.87733e-06
-5.96805e-08
4.88654e-06
9.68196e-08
4.87555e-06
-7.14624e-08
4.87937e-06
-3.46083e-08
4.87472e-06
4.0447e-08
4.87898e-06
-3.18399e-08
4.87069e-06
7.34963e-09
4.87643e-06
2.61769e-08
4.87245e-06
3.66224e-08
4.87775e-06
3.8801e-08
4.87546e-06
3.11295e-08
4.87571e-06
1.95686e-08
4.87292e-06
2.1414e-08
4.86831e-06
2.50188e-08
4.8621e-06
2.00477e-08
4.85934e-06
3.35933e-08
4.48687e-08
4.85511e-06
5.27185e-06
1.76672e-08
5.26784e-06
-3.31072e-08
5.2748e-06
9.14339e-08
5.26706e-06
-5.19419e-08
5.27786e-06
8.60165e-08
5.26517e-06
-5.8774e-08
5.27017e-06
-3.96089e-08
5.26471e-06
4.59128e-08
5.26827e-06
-3.53983e-08
5.26166e-06
1.3955e-08
5.26502e-06
2.28194e-08
5.26536e-06
3.62769e-08
5.26632e-06
3.78491e-08
5.2678e-06
2.96423e-08
5.26387e-06
2.3506e-08
5.26237e-06
2.29112e-08
5.25824e-06
2.91436e-08
5.25164e-06
2.66506e-08
5.24919e-06
3.60397e-08
4.74402e-08
5.24662e-06
5.69305e-06
1.60802e-08
5.68811e-06
-2.81695e-08
5.6964e-06
8.31464e-08
5.6876e-06
-4.31421e-08
5.69922e-06
7.43897e-08
5.68605e-06
-4.56048e-08
5.69063e-06
-4.41849e-08
5.68661e-06
4.99306e-08
5.68714e-06
-3.59233e-08
5.68491e-06
1.61777e-08
5.6837e-06
2.40332e-08
5.68809e-06
3.18862e-08
5.68569e-06
4.02554e-08
5.6876e-06
2.77235e-08
5.68374e-06
2.73736e-08
5.68034e-06
2.63101e-08
5.6777e-06
3.17849e-08
5.67177e-06
3.25763e-08
5.66914e-06
3.86678e-08
4.89066e-08
5.66768e-06
6.14775e-06
1.42054e-08
6.14189e-06
-2.23182e-08
6.15138e-06
7.3659e-08
6.14182e-06
-3.35767e-08
6.15364e-06
6.25609e-08
6.14103e-06
-3.29888e-08
6.14391e-06
-4.70656e-08
6.14274e-06
5.11037e-08
6.13943e-06
-3.26142e-08
6.14113e-06
1.44773e-08
6.13697e-06
2.81932e-08
6.14185e-06
2.70086e-08
6.13974e-06
4.23565e-08
6.13931e-06
2.81551e-08
6.1369e-06
2.97894e-08
6.13206e-06
3.11505e-08
6.12992e-06
3.39231e-08
6.1255e-06
3.69991e-08
6.12249e-06
4.16765e-08
4.96458e-08
6.12175e-06
6.63868e-06
1.20832e-08
6.63205e-06
-1.56844e-08
6.64233e-06
6.33766e-08
6.63275e-06
-2.39962e-08
6.64369e-06
5.16267e-08
6.63306e-06
-2.23641e-08
6.63298e-06
-4.69826e-08
6.63508e-06
4.89979e-08
6.62882e-06
-2.63495e-08
6.63171e-06
1.15879e-08
6.62814e-06
3.17601e-08
6.6308e-06
2.43463e-08
6.63011e-06
4.30539e-08
6.6273e-06
3.09617e-08
6.62566e-06
3.14316e-08
6.62082e-06
3.59838e-08
6.61832e-06
3.6429e-08
6.61535e-06
3.9969e-08
6.61247e-06
4.45568e-08
5.02727e-08
6.61184e-06
7.16872e-06
9.79592e-09
7.16159e-06
-8.55885e-09
7.17202e-06
5.295e-08
7.16339e-06
-1.53668e-08
7.17235e-06
4.26645e-08
7.16488e-06
-1.48965e-08
7.16121e-06
-4.33054e-08
7.16551e-06
4.46904e-08
7.15882e-06
-1.96598e-08
7.16032e-06
1.00887e-08
7.15834e-06
3.37405e-08
7.15932e-06
2.33677e-08
7.15863e-06
4.37417e-08
7.15516e-06
3.44349e-08
7.15368e-06
3.29097e-08
7.14913e-06
4.05333e-08
7.14593e-06
3.96281e-08
7.14409e-06
4.18108e-08
7.14194e-06
4.67043e-08
5.09981e-08
7.14122e-06
7.74093e-06
7.46906e-09
7.73376e-06
-1.38912e-09
7.74342e-06
4.32869e-08
7.73693e-06
-8.87357e-09
7.74294e-06
3.66602e-08
7.73869e-06
-1.06516e-08
7.73263e-06
-3.72457e-08
7.73703e-06
4.02934e-08
7.7317e-06
-1.43275e-08
7.73148e-06
1.03061e-08
7.72956e-06
3.56535e-08
7.73059e-06
2.23438e-08
7.72942e-06
4.49114e-08
7.72485e-06
3.90023e-08
7.7241e-06
3.36629e-08
7.72045e-06
4.41801e-08
7.7163e-06
4.37746e-08
7.71491e-06
4.32087e-08
7.71372e-06
4.78871e-08
5.16256e-08
7.7131e-06
8.35865e-06
5.275e-09
8.35205e-06
5.21509e-09
8.35986e-06
3.54727e-08
8.35656e-06
-5.57027e-09
8.35932e-06
3.38987e-08
8.35704e-06
-8.36813e-09
8.351e-06
-3.1208e-08
8.35351e-06
3.77898e-08
8.34966e-06
-1.04867e-08
8.34931e-06
1.06571e-08
8.34575e-06
3.92132e-08
8.34677e-06
2.13319e-08
8.34664e-06
4.50391e-08
8.34043e-06
4.52088e-08
8.33929e-06
3.48064e-08
8.33779e-06
4.56771e-08
8.3333e-06
4.82612e-08
8.33131e-06
4.52012e-08
8.33099e-06
4.82077e-08
5.17492e-08
8.33087e-06
9.0255e-06
3.41747e-09
9.02016e-06
1.05608e-08
9.02505e-06
3.0578e-08
9.02531e-06
-5.8307e-09
9.02592e-06
3.32927e-08
9.02351e-06
-5.96248e-09
9.01946e-06
-2.71529e-08
9.01966e-06
3.7591e-08
9.01569e-06
-6.51978e-09
9.01685e-06
9.49466e-09
9.01211e-06
4.39539e-08
9.01087e-06
2.25792e-08
9.01322e-06
4.26857e-08
9.00666e-06
5.17694e-08
9.00345e-06
3.80198e-08
9.00389e-06
4.52342e-08
9.00045e-06
5.17033e-08
8.9976e-06
4.80485e-08
8.99749e-06
4.83191e-08
5.12994e-08
8.99794e-06
9.74543e-06
2.08792e-09
9.74197e-06
1.40196e-08
9.74342e-06
2.91272e-08
9.7464e-06
-8.81039e-09
9.74686e-06
3.2841e-08
9.74259e-06
-1.70108e-09
9.74069e-06
-2.52461e-08
9.74026e-06
3.80217e-08
9.73408e-06
-3.41231e-10
9.73685e-06
6.7228e-09
9.73295e-06
4.78514e-08
9.72796e-06
2.75725e-08
9.73182e-06
3.88264e-08
9.72746e-06
5.61257e-08
9.72181e-06
4.3672e-08
9.72245e-06
4.45979e-08
9.72103e-06
5.31224e-08
9.71786e-06
5.12194e-08
9.71736e-06
4.8811e-08
5.0483e-08
9.71818e-06
1.05227e-05
1.42158e-09
1.05216e-05
1.52017e-08
1.052e-05
3.07241e-08
1.05237e-05
-1.25199e-08
1.05261e-05
3.03962e-08
1.05193e-05
5.07566e-09
1.05181e-05
-2.40332e-08
1.05194e-05
3.67894e-08
1.05104e-05
8.61496e-09
1.05126e-05
4.49706e-09
1.05118e-05
4.87154e-08
1.05041e-05
3.51937e-08
1.05063e-05
3.66509e-08
1.05057e-05
5.6791e-08
1.04993e-05
5.00318e-08
1.04985e-05
4.54164e-08
1.04987e-05
5.28731e-08
1.04962e-05
5.37206e-08
1.04952e-05
4.98277e-08
4.96819e-08
1.0496e-05
1.13622e-05
1.43691e-09
1.13632e-05
1.41556e-08
1.13598e-05
3.41502e-08
1.13618e-05
-1.4562e-08
1.13675e-05
2.46925e-08
1.13593e-05
1.33002e-08
1.13565e-05
-2.12057e-08
1.13603e-05
3.29611e-08
1.13504e-05
1.8521e-08
1.13493e-05
5.60267e-09
1.13517e-05
4.62746e-08
1.13443e-05
4.26167e-08
1.13433e-05
3.76433e-08
1.13445e-05
5.55747e-08
1.13399e-05
5.46881e-08
1.13374e-05
4.7841e-08
1.13382e-05
5.21541e-08
1.1337e-05
5.48764e-08
1.13357e-05
5.11572e-08
4.90857e-08
1.13363e-05
1.22687e-05
2.03182e-09
1.22714e-05
1.14625e-08
1.22678e-05
3.77424e-08
1.22663e-05
-1.30506e-08
1.22749e-05
1.60797e-08
1.22678e-05
2.04911e-08
1.22614e-05
-1.48756e-08
1.2267e-05
2.73528e-08
1.22588e-05
2.67902e-08
1.22536e-05
1.07811e-08
1.22572e-05
4.26838e-08
1.22521e-05
4.76897e-08
1.22489e-05
4.08631e-08
1.22501e-05
5.43696e-08
1.22472e-05
5.75299e-08
1.22445e-05
5.06122e-08
1.22448e-05
5.17987e-08
1.22448e-05
5.49224e-08
1.22437e-05
5.22153e-08
4.88401e-08
1.2244e-05
1.3248e-05
2.97285e-09
1.32514e-05
8.07696e-09
1.32492e-05
3.99178e-08
1.32436e-05
-7.40894e-09
1.3253e-05
6.64088e-09
1.32496e-05
2.39236e-08
1.32397e-05
-4.97091e-09
1.32444e-05
2.26121e-08
1.32398e-05
3.14361e-08
1.32322e-05
1.83148e-08
1.32341e-05
4.08512e-08
1.32319e-05
4.98897e-08
1.32282e-05
4.45049e-08
1.32285e-05
5.40344e-08
1.3227e-05
5.91201e-08
1.32243e-05
5.33041e-08
1.32244e-05
5.16815e-08
1.3225e-05
5.42811e-08
1.32245e-05
5.27685e-08
4.88311e-08
1.32245e-05
1.43058e-05
3.95542e-09
1.43087e-05
5.10311e-09
1.43092e-05
3.94898e-08
1.43005e-05
1.27657e-09
1.43076e-05
-4.69702e-10
1.43089e-05
2.25573e-08
1.4298e-05
5.96097e-09
1.42993e-05
2.13699e-08
1.42976e-05
3.3066e-08
1.42905e-05
2.54356e-08
1.429e-05
4.13577e-08
1.42887e-05
5.11422e-08
1.42861e-05
4.71445e-08
1.42862e-05
5.38971e-08
1.42852e-05
6.01882e-08
1.42827e-05
5.5737e-08
1.42824e-05
5.19806e-08
1.42836e-05
5.31055e-08
1.42837e-05
5.26883e-08
4.88307e-08
1.42837e-05
1.54483e-05
4.66045e-09
1.545e-05
3.40235e-09
1.54532e-05
3.63114e-08
1.54437e-05
1.07834e-08
1.54459e-05
-2.7413e-09
1.54509e-05
1.7561e-08
1.54424e-05
1.45253e-08
1.54393e-05
2.44751e-08
1.54385e-05
3.38543e-08
1.54334e-05
3.05272e-08
1.54317e-05
4.30793e-08
1.54303e-05
5.25322e-08
1.5428e-05
4.94054e-08
1.54286e-05
5.33202e-08
1.54286e-05
6.01594e-08
1.54263e-05
5.80578e-08
1.54255e-05
5.27829e-08
1.54267e-05
5.19244e-08
1.54276e-05
5.17481e-08
4.86387e-08
1.54278e-05
1.66822e-05
4.87392e-09
1.66822e-05
3.43475e-09
1.66875e-05
3.10335e-08
1.66793e-05
1.89354e-08
1.66763e-05
2.66256e-10
1.6682e-05
1.19041e-08
1.66779e-05
1.86373e-08
1.66726e-05
2.97746e-08
1.667e-05
3.6477e-08
1.66665e-05
3.39578e-08
1.66654e-05
4.42331e-08
1.66639e-05
5.40475e-08
1.66614e-05
5.18789e-08
1.66619e-05
5.28253e-08
1.66631e-05
5.89078e-08
1.6662e-05
5.9182e-08
1.66606e-05
5.42204e-08
1.66612e-05
5.13159e-08
1.66626e-05
5.02946e-08
4.79149e-08
1.66634e-05
1.80147e-05
4.58092e-09
1.80131e-05
5.03317e-09
1.8019e-05
2.51407e-08
1.8014e-05
2.39447e-08
1.80073e-05
6.92084e-09
1.80103e-05
8.89957e-09
1.80103e-05
1.86852e-08
1.80061e-05
3.39089e-08
1.80013e-05
4.13683e-08
1.79974e-05
3.77902e-08
1.79973e-05
4.43337e-08
1.79969e-05
5.44588e-08
1.79943e-05
5.45022e-08
1.79938e-05
5.32759e-08
1.79958e-05
5.69707e-08
1.79961e-05
5.88167e-08
1.79951e-05
5.52492e-08
1.7995e-05
5.14005e-08
1.79962e-05
4.90775e-08
4.67023e-08
1.79975e-05
1.94533e-05
3.97086e-09
1.94508e-05
7.49789e-09
1.94557e-05
2.02252e-08
1.94546e-05
2.51305e-08
1.94467e-05
1.48099e-08
1.94453e-05
1.02361e-08
1.94471e-05
1.68845e-08
1.94461e-05
3.49354e-08
1.9441e-05
4.64362e-08
1.94355e-05
4.32872e-08
1.9435e-05
4.48748e-08
1.94362e-05
5.32489e-08
1.94349e-05
5.58507e-08
1.94334e-05
5.47225e-08
1.94348e-05
5.56007e-08
1.94364e-05
5.71842e-08
1.94363e-05
5.53952e-08
1.94362e-05
5.14389e-08
1.94369e-05
4.84382e-08
4.55374e-08
1.9438e-05
2.10064e-05
3.33232e-09
2.10041e-05
9.88554e-09
2.10068e-05
1.74871e-08
2.10087e-05
2.32378e-08
2.10023e-05
2.12231e-08
2.0997e-05
1.55396e-08
2.09974e-05
1.6486e-08
2.09995e-05
3.27745e-08
2.09971e-05
4.88852e-08
2.09905e-05
4.9857e-08
2.0988e-05
4.74034e-08
2.09898e-05
5.14102e-08
2.09904e-05
5.52863e-08
2.09895e-05
5.55699e-08
2.09897e-05
5.54775e-08
2.09913e-05
5.55409e-08
2.09923e-05
5.44064e-08
2.09927e-05
5.10526e-08
2.09932e-05
4.79577e-08
4.466e-08
2.0994e-05
2.26833e-05
2.98058e-09
2.26818e-05
1.14101e-08
2.26822e-05
1.70385e-08
2.26851e-05
2.03201e-08
2.26818e-05
2.44919e-08
2.26748e-05
2.26203e-08
2.26722e-05
1.90642e-08
2.26753e-05
2.96215e-08
2.26763e-05
4.79678e-08
2.26714e-05
5.47131e-08
2.26667e-05
5.20684e-08
2.26671e-05
5.10746e-08
2.26694e-05
5.29481e-08
2.26701e-05
5.49007e-08
2.26703e-05
5.52802e-08
2.26709e-05
5.48803e-08
2.26723e-05
5.30508e-08
2.26732e-05
5.01185e-08
2.26742e-05
4.69832e-08
4.39404e-08
2.26749e-05
2.44938e-05
3.09698e-09
2.44935e-05
1.17663e-08
2.44923e-05
1.81919e-08
2.44943e-05
1.83455e-08
2.44943e-05
2.45159e-08
2.44882e-05
2.86574e-08
2.44826e-05
2.47341e-08
2.44839e-05
2.82503e-08
2.44879e-05
4.40374e-08
2.44864e-05
5.6161e-08
2.44815e-05
5.69442e-08
2.44797e-05
5.2916e-08
2.44815e-05
5.1185e-08
2.44841e-05
5.22553e-08
2.44854e-05
5.40277e-08
2.44861e-05
5.41691e-08
2.44867e-05
5.24552e-08
2.44877e-05
4.90469e-08
2.4489e-05
4.5722e-08
4.26645e-08
2.44903e-05
2.6449e-05
3.66008e-09
2.64495e-05
1.12896e-08
2.6448e-05
1.97095e-08
2.64479e-05
1.83636e-08
2.64497e-05
2.27819e-08
2.64465e-05
3.18053e-08
2.64397e-05
3.15783e-08
2.64381e-05
2.98404e-08
2.64424e-05
3.97114e-08
2.64447e-05
5.39281e-08
2.64422e-05
5.93996e-08
2.64386e-05
5.64663e-08
2.64388e-05
5.10021e-08
2.64416e-05
4.95314e-08
2.64447e-05
5.09247e-08
2.64463e-05
5.24798e-08
2.6447e-05
5.17742e-08
2.64474e-05
4.87127e-08
2.64485e-05
4.45951e-08
4.1364e-08
2.64498e-05
2.85605e-05
4.46279e-09
2.85612e-05
1.06122e-08
2.85603e-05
2.06134e-08
2.85586e-05
2.00837e-08
2.856e-05
2.1302e-08
2.85599e-05
3.1928e-08
2.85545e-05
3.69897e-08
2.85503e-05
3.41047e-08
2.85527e-05
3.73111e-08
2.85574e-05
4.91925e-08
2.85582e-05
5.85935e-08
2.85557e-05
5.89559e-08
2.85538e-05
5.28856e-08
2.85554e-05
4.79604e-08
2.85589e-05
4.74231e-08
2.85622e-05
4.91604e-08
2.85638e-05
5.01423e-08
2.85644e-05
4.81818e-08
2.85647e-05
4.43199e-08
4.02326e-08
2.85658e-05
3.08409e-05
5.22368e-09
3.08412e-05
1.0341e-08
3.08413e-05
2.05142e-08
3.08389e-05
2.24962e-08
3.08388e-05
2.1359e-08
3.08406e-05
3.01395e-08
3.08381e-05
3.94602e-08
3.0833e-05
3.91997e-08
3.08329e-05
3.74533e-08
3.08374e-05
4.46442e-08
3.08413e-05
5.47531e-08
3.08414e-05
5.8863e-08
3.08393e-05
5.49883e-08
3.08391e-05
4.81251e-08
3.08416e-05
4.48968e-08
3.08457e-05
4.51451e-08
3.08488e-05
4.70013e-08
3.08503e-05
4.67196e-08
3.08507e-05
4.38375e-08
3.9788e-08
3.08512e-05
3.33036e-05
5.71474e-09
3.33032e-05
1.07627e-08
3.33041e-05
1.96494e-08
3.33021e-05
2.44852e-08
3.33006e-05
2.28524e-08
3.33025e-05
2.82446e-08
3.33028e-05
3.9103e-08
3.32993e-05
4.27079e-08
3.3297e-05
3.97284e-08
3.32999e-05
4.17549e-08
3.33052e-05
4.95044e-08
3.3308e-05
5.6085e-08
3.33076e-05
5.53161e-08
3.33065e-05
4.92546e-08
3.33077e-05
4.36875e-08
3.33109e-05
4.19415e-08
3.33151e-05
4.28065e-08
3.33179e-05
4.39614e-08
3.33192e-05
4.24771e-08
3.90894e-08
3.33199e-05
3.5963e-05
5.85697e-09
3.5962e-05
1.17361e-08
3.59631e-05
1.85939e-08
3.59622e-05
2.53167e-08
3.59601e-05
2.4992e-08
3.59609e-05
2.74318e-08
3.59631e-05
3.6867e-08
3.59622e-05
4.36405e-08
3.59596e-05
4.23394e-08
3.59607e-05
4.0702e-08
3.59651e-05
4.50194e-08
3.59701e-05
5.11712e-08
3.59719e-05
5.34596e-08
3.59717e-05
4.94601e-08
3.59717e-05
4.36517e-08
3.5974e-05
3.97001e-08
3.59777e-05
3.91294e-08
3.59817e-05
3.99383e-08
3.59841e-05
4.00342e-08
3.76514e-08
3.59856e-05
3.88346e-05
5.72048e-09
3.88335e-05
1.28366e-08
3.88343e-05
1.78315e-08
3.88346e-05
2.49697e-08
3.88328e-05
2.67475e-08
3.88326e-05
2.76308e-08
3.88352e-05
3.42908e-08
3.88366e-05
4.22463e-08
3.88355e-05
4.34247e-08
3.88353e-05
4.09509e-08
3.88385e-05
4.17969e-08
3.88437e-05
4.59882e-08
3.88476e-05
4.95148e-08
3.88491e-05
4.80114e-08
3.88494e-05
4.3318e-08
3.88506e-05
3.85477e-08
3.88534e-05
3.62502e-08
3.88573e-05
3.60679e-08
3.88609e-05
3.64027e-08
3.54741e-08
3.88631e-05
4.19353e-05
5.43846e-09
4.19345e-05
1.36322e-08
4.19348e-05
1.75074e-08
4.1936e-05
2.38466e-08
4.19353e-05
2.74052e-08
4.19348e-05
2.81798e-08
4.19368e-05
3.2289e-08
4.19397e-05
3.93265e-08
4.19406e-05
4.25393e-08
4.19405e-05
4.09961e-08
4.19426e-05
3.97263e-08
4.1947e-05
4.16065e-08
4.1952e-05
4.45181e-08
4.19551e-05
4.4928e-08
4.19566e-05
4.18149e-08
4.19576e-05
3.75412e-08
4.19596e-05
3.41842e-08
4.19628e-05
3.28898e-08
4.19665e-05
3.27081e-08
3.23094e-08
4.19697e-05
4.52835e-05
5.12021e-09
4.52832e-05
1.38756e-08
4.52833e-05
1.73975e-08
4.52848e-05
2.24072e-08
4.52854e-05
2.68228e-08
4.52852e-05
2.8329e-08
4.52867e-05
3.07881e-08
4.52901e-05
3.5964e-08
4.52926e-05
4.00003e-08
4.52938e-05
3.9773e-08
4.52954e-05
3.81488e-08
4.5299e-05
3.80469e-08
4.53038e-05
3.97064e-08
4.53081e-05
4.06255e-08
4.53108e-05
3.907e-08
4.53126e-05
3.57887e-08
4.53143e-05
3.24768e-08
4.53169e-05
3.02674e-08
4.53202e-05
2.94465e-08
2.89416e-08
4.53235e-05
4.88989e-05
4.80887e-09
4.88993e-05
1.35315e-08
4.88995e-05
1.71172e-08
4.89011e-05
2.08927e-08
4.89026e-05
2.52803e-08
4.89034e-05
2.75509e-08
4.89049e-05
2.9298e-08
4.89081e-05
3.27469e-08
4.89117e-05
3.6389e-08
4.89143e-05
3.72094e-08
4.89163e-05
3.6062e-08
4.89194e-05
3.50175e-08
4.89237e-05
3.54082e-08
4.89283e-05
3.59933e-08
4.8932e-05
3.53484e-08
4.89347e-05
3.30973e-08
4.89368e-05
3.03442e-08
4.89392e-05
2.7966e-08
4.89421e-05
2.64976e-08
2.57463e-08
4.89453e-05
5.2803e-05
4.48477e-09
5.28039e-05
1.26771e-08
5.28046e-05
1.63735e-08
5.28063e-05
1.92673e-08
5.28085e-05
2.30754e-08
5.28103e-05
2.57451e-08
5.28122e-05
2.73689e-08
5.28153e-05
2.96006e-08
5.28194e-05
3.23249e-08
5.2823e-05
3.35867e-08
5.2826e-05
3.30516e-08
5.28291e-05
3.1931e-08
5.28331e-05
3.14456e-08
5.28376e-05
3.15051e-08
5.28418e-05
3.10952e-08
5.28453e-05
2.96672e-08
5.28481e-05
2.75478e-08
5.28506e-05
2.54482e-08
5.28533e-05
2.37341e-08
2.26401e-08
5.28564e-05
5.70189e-05
4.09562e-09
5.70202e-05
1.14064e-08
5.70215e-05
1.50308e-08
5.70234e-05
1.73531e-08
5.70261e-05
2.03902e-08
5.70288e-05
2.30578e-08
5.70315e-05
2.47113e-08
5.70348e-05
2.6247e-08
5.70391e-05
2.80793e-08
5.70434e-05
2.92656e-08
5.70473e-05
2.91784e-08
5.70509e-05
2.83148e-08
5.70548e-05
2.74864e-08
5.70592e-05
2.711e-08
5.70637e-05
2.66561e-08
5.70676e-05
2.57263e-08
5.7071e-05
2.41943e-08
5.70739e-05
2.24851e-08
5.70768e-05
2.09013e-08
1.9614e-08
5.70798e-05
6.15714e-05
3.58588e-09
6.15731e-05
9.77455e-09
6.1575e-05
1.30642e-08
6.15774e-05
1.49954e-08
6.15805e-05
1.72852e-08
6.15839e-05
1.96289e-08
6.15874e-05
2.12633e-08
6.15912e-05
2.24268e-08
6.15957e-05
2.35985e-08
6.16004e-05
2.45086e-08
6.1605e-05
2.46566e-08
6.16092e-05
2.40855e-08
6.16134e-05
2.32672e-08
6.16179e-05
2.26021e-08
6.16226e-05
2.20032e-08
6.1627e-05
2.12672e-08
6.1631e-05
2.02564e-08
6.16344e-05
1.90587e-08
6.16375e-05
1.78236e-08
1.6703e-08
6.16404e-05
6.64875e-05
2.9231e-09
6.64894e-05
7.78929e-09
6.6492e-05
1.04986e-08
6.64949e-05
1.20849e-08
6.64984e-05
1.37615e-08
6.65025e-05
1.55973e-08
6.65067e-05
1.70521e-08
6.65111e-05
1.80118e-08
6.65159e-05
1.87599e-08
6.65211e-05
1.93506e-08
6.65262e-05
1.95404e-08
6.6531e-05
1.92548e-08
6.65357e-05
1.86621e-08
6.65402e-05
1.80197e-08
6.65448e-05
1.74086e-08
6.65493e-05
1.67713e-08
6.65536e-05
1.60061e-08
6.65575e-05
1.51086e-08
6.65612e-05
1.41573e-08
1.32368e-08
6.65647e-05
7.1796e-05
2.11869e-09
7.17983e-05
5.48795e-09
7.18014e-05
7.40297e-09
7.18048e-05
8.59823e-09
7.18088e-05
9.79029e-09
7.18133e-05
1.10936e-08
7.18182e-05
1.22056e-08
7.18232e-05
1.29625e-08
7.18285e-05
1.34634e-08
7.18341e-05
1.38053e-08
7.18397e-05
1.39318e-08
7.18451e-05
1.37923e-08
7.18504e-05
1.34295e-08
7.18554e-05
1.29689e-08
7.18603e-05
1.24946e-08
7.18651e-05
1.20155e-08
7.18696e-05
1.14961e-08
7.18738e-05
1.09135e-08
7.18777e-05
1.02841e-08
9.64918e-09
7.18813e-05
7.75285e-05
7.75313e-05
7.75349e-05
7.75389e-05
7.75435e-05
7.75486e-05
7.75542e-05
7.75599e-05
7.75659e-05
7.75719e-05
7.7578e-05
7.7584e-05
7.75897e-05
7.75952e-05
7.76006e-05
7.76057e-05
7.76106e-05
7.76152e-05
7.76195e-05
7.76235e-05
3.76871e-06
6.25012e-08
3.67472e-06
9.39926e-08
3.57602e-06
9.86983e-08
3.4799e-06
9.61237e-08
3.38435e-06
9.55427e-08
3.28781e-06
9.65406e-08
3.18929e-06
9.85209e-08
3.08812e-06
1.01168e-07
2.98452e-06
1.03609e-07
2.8786e-06
1.05919e-07
2.76882e-06
1.09778e-07
2.65542e-06
1.13393e-07
2.53857e-06
1.16855e-07
2.41813e-06
1.20442e-07
2.29707e-06
1.21059e-07
2.17692e-06
1.20153e-07
2.05875e-06
1.18167e-07
1.94539e-06
1.13361e-07
1.83579e-06
1.09599e-07
1.72425e-06
1.11534e-07
1.60638e-06
1.17879e-07
1.48465e-06
1.21724e-07
1.36571e-06
1.18938e-07
1.25562e-06
1.10089e-07
1.15819e-06
9.74366e-08
1.07487e-06
8.33189e-08
1.00792e-06
6.6947e-08
9.59494e-07
4.84284e-08
9.27106e-07
3.23871e-08
9.04618e-07
2.24888e-08
8.87951e-07
1.6667e-08
8.77356e-07
1.05943e-08
8.72078e-07
5.27821e-09
8.68081e-07
3.99741e-09
8.64204e-07
3.87638e-09
8.61675e-07
2.52947e-09
8.59314e-07
2.3613e-09
8.55806e-07
3.5072e-09
8.51276e-07
4.53026e-09
8.45688e-07
5.58859e-09
8.39439e-07
6.24876e-09
8.32931e-07
6.50795e-09
8.26152e-07
6.77927e-09
8.20329e-07
5.82279e-09
8.16417e-07
3.91143e-09
8.13404e-07
3.01343e-09
8.10929e-07
2.4753e-09
8.09438e-07
1.49056e-09
8.07783e-07
1.65551e-09
8.05117e-07
2.66533e-09
8.03062e-07
2.05565e-09
8.02771e-07
2.90674e-10
8.03017e-07
-2.46051e-10
8.02674e-07
3.4344e-10
8.02279e-07
3.94591e-10
8.0246e-07
-1.80848e-10
8.03002e-07
-5.4219e-10
8.03527e-07
-5.24702e-10
8.04056e-07
-5.29346e-10
8.04624e-07
-5.68065e-10
8.05188e-07
-5.64194e-10
8.05637e-07
-4.48479e-10
8.06002e-07
-3.6521e-10
8.06268e-07
-2.66238e-10
8.06496e-07
-2.27388e-10
8.06655e-07
-1.59798e-10
8.06799e-07
-1.43172e-10
8.069e-07
-1.01665e-10
8.06987e-07
-8.64804e-11
8.07052e-07
-6.5581e-11
8.0709e-07
-3.79083e-11
8.07136e-07
-4.5789e-11
8.07138e-07
-1.57912e-12
8.07178e-07
-4.08224e-11
8.07159e-07
1.93891e-11
8.07199e-07
-4.00308e-11
8.07174e-07
2.46028e-11
8.07206e-07
-3.17939e-11
8.07192e-07
1.41963e-11
8.07204e-07
-1.21595e-11
8.0721e-07
-6.07746e-12
8.072e-07
1.05769e-11
8.07222e-07
-2.18144e-11
8.07202e-07
1.98701e-11
8.07219e-07
-1.72014e-11
8.07212e-07
6.48177e-12
8.07206e-07
6.63189e-12
8.0722e-07
-1.40868e-11
8.07196e-07
2.35047e-11
8.07205e-07
-8.25747e-12
8.07195e-07
9.45545e-12
8.07161e-07
3.36765e-11
8.07169e-07
-7.47913e-12
8.07105e-07
6.39448e-11
8.07049e-07
5.63334e-11
8.07016e-07
3.22958e-11
8.06793e-07
2.23462e-10
8.06722e-07
7.0839e-11
8.06368e-07
3.53971e-10
1.67332e-09
4.15855e-06
5.35711e-08
4.16416e-06
8.8381e-08
4.159e-06
1.03857e-07
4.15051e-06
1.04615e-07
4.14171e-06
1.0435e-07
4.13176e-06
1.06489e-07
4.11948e-06
1.10799e-07
4.10377e-06
1.16878e-07
4.08491e-06
1.22471e-07
4.06253e-06
1.28294e-07
4.03622e-06
1.36092e-07
4.00559e-06
1.44027e-07
3.97022e-06
1.52225e-07
3.93029e-06
1.60364e-07
3.88578e-06
1.65578e-07
3.83834e-06
1.67589e-07
3.78798e-06
1.68525e-07
3.73508e-06
1.66265e-07
3.68148e-06
1.63201e-07
3.62479e-06
1.68225e-07
3.56239e-06
1.80272e-07
3.49483e-06
1.89288e-07
3.42458e-06
1.89184e-07
3.35412e-06
1.80554e-07
3.28499e-06
1.66567e-07
3.21839e-06
1.49921e-07
3.15453e-06
1.30805e-07
3.09606e-06
1.06895e-07
3.04429e-06
8.41584e-08
2.99514e-06
7.16393e-08
2.94844e-06
6.33705e-08
2.90732e-06
5.17055e-08
2.87025e-06
4.23535e-08
2.83446e-06
3.97901e-08
2.79996e-06
3.83749e-08
2.76745e-06
3.50334e-08
2.73686e-06
3.29502e-08
2.70738e-06
3.29913e-08
2.67843e-06
3.34852e-08
2.65059e-06
3.34251e-08
2.62386e-06
3.29795e-08
2.59747e-06
3.28949e-08
2.57228e-06
3.19688e-08
2.54967e-06
2.84314e-08
2.52919e-06
2.43954e-08
2.51042e-06
2.17788e-08
2.49445e-06
1.84523e-08
2.48107e-06
1.4871e-08
2.46837e-06
1.43561e-08
2.45616e-06
1.48673e-08
2.44629e-06
1.19259e-08
2.43924e-06
7.34227e-09
2.43364e-06
5.35898e-09
2.42867e-06
5.30877e-09
2.42479e-06
4.27462e-09
2.42235e-06
2.26347e-09
2.42113e-06
6.71574e-10
2.42088e-06
-2.73781e-10
2.42149e-06
-1.13822e-09
2.42273e-06
-1.81011e-09
2.42429e-06
-2.12269e-09
2.42586e-06
-2.01612e-09
2.42731e-06
-1.81241e-09
2.42855e-06
-1.51242e-09
2.42963e-06
-1.29981e-09
2.43051e-06
-1.04844e-09
2.43127e-06
-8.98863e-10
2.43188e-06
-7.08776e-10
2.43237e-06
-5.76016e-10
2.43273e-06
-4.29963e-10
2.43299e-06
-2.99971e-10
2.43318e-06
-2.30038e-10
2.43329e-06
-1.10399e-10
2.43337e-06
-1.28304e-10
2.4334e-06
-1.09015e-11
2.43345e-06
-9.0093e-11
2.43345e-06
2.64309e-11
2.43349e-06
-6.87772e-11
2.43348e-06
2.51375e-11
2.43351e-06
-3.994e-11
2.4335e-06
3.67067e-12
2.43351e-06
-7.73671e-12
2.43351e-06
-1.49611e-11
2.43352e-06
7.24032e-12
2.43351e-06
-8.45262e-12
2.43352e-06
-6.60074e-12
2.43351e-06
2.2113e-11
2.43352e-06
-2.89937e-11
2.4335e-06
4.57686e-11
2.43351e-06
-1.95667e-11
2.43348e-06
3.78133e-11
2.43348e-06
3.69466e-11
2.43344e-06
3.06922e-11
2.43341e-06
9.74997e-11
2.43332e-06
1.4216e-10
2.43328e-06
7.59319e-11
2.43304e-06
4.59143e-10
2.43288e-06
2.32105e-10
2.43266e-06
5.74803e-10
3.09864e-09
4.49324e-06
5.03166e-08
4.50147e-06
8.01516e-08
4.50501e-06
1.00324e-07
4.50519e-06
1.04435e-07
4.50526e-06
1.04279e-07
4.50586e-06
1.05883e-07
4.50687e-06
1.09797e-07
4.50745e-06
1.16292e-07
4.50744e-06
1.22482e-07
4.50662e-06
1.29115e-07
4.50485e-06
1.37866e-07
4.50193e-06
1.4694e-07
4.49743e-06
1.56725e-07
4.49159e-06
1.66206e-07
4.48356e-06
1.73605e-07
4.47397e-06
1.77188e-07
4.46266e-06
1.7983e-07
4.44867e-06
1.80252e-07
4.43381e-06
1.78061e-07
4.41831e-06
1.8373e-07
4.40142e-06
1.97155e-07
4.38325e-06
2.07459e-07
4.3638e-06
2.08639e-07
4.34313e-06
2.01221e-07
4.32118e-06
1.88513e-07
4.29847e-06
1.72637e-07
4.27506e-06
1.5421e-07
4.25158e-06
1.30382e-07
4.22942e-06
1.06312e-07
4.2074e-06
9.36616e-08
4.18459e-06
8.61792e-08
4.16251e-06
7.37901e-08
4.14083e-06
6.40276e-08
4.11844e-06
6.2183e-08
4.0962e-06
6.06174e-08
4.07479e-06
5.64412e-08
4.05407e-06
5.3672e-08
4.03396e-06
5.31032e-08
4.01388e-06
5.35638e-08
3.99353e-06
5.37734e-08
3.97316e-06
5.33517e-08
3.95246e-06
5.35927e-08
3.93186e-06
5.2564e-08
3.91273e-06
4.75704e-08
3.89488e-06
4.22395e-08
3.87758e-06
3.908e-08
3.86159e-06
3.44443e-08
3.84722e-06
2.92404e-08
3.83325e-06
2.8329e-08
3.81952e-06
2.85901e-08
3.80741e-06
2.40385e-08
3.79727e-06
1.74874e-08
3.78818e-06
1.44423e-08
3.77979e-06
1.36987e-08
3.77252e-06
1.15479e-08
3.76658e-06
8.20108e-09
3.76181e-06
5.43942e-09
3.7581e-06
3.43976e-09
3.75545e-06
1.51701e-09
3.75377e-06
-1.35922e-10
3.75288e-06
-1.23471e-09
3.75257e-06
-1.70228e-09
3.75267e-06
-1.91354e-09
3.7531e-06
-1.94016e-09
3.75383e-06
-2.03092e-09
3.75485e-06
-2.0695e-09
3.75612e-06
-2.16897e-09
3.75753e-06
-2.11929e-09
3.75895e-06
-1.99336e-09
3.76023e-06
-1.71461e-09
3.7613e-06
-1.36647e-09
3.76211e-06
-1.04089e-09
3.76268e-06
-6.79837e-10
3.76306e-06
-5.06251e-10
3.76328e-06
-2.35338e-10
3.76343e-06
-2.35101e-10
3.76349e-06
-3.54855e-11
3.76355e-06
-1.29221e-10
3.76355e-06
2.45174e-11
3.76359e-06
-7.89003e-11
3.76357e-06
2.317e-11
3.7636e-06
-3.8694e-11
3.76358e-06
4.85106e-12
3.7636e-06
-1.07685e-11
3.76359e-06
4.8027e-13
3.76359e-06
-8.74427e-12
3.76359e-06
2.25788e-11
3.76359e-06
-2.56419e-11
3.76358e-06
5.43293e-11
3.76358e-06
-2.46167e-11
3.76356e-06
6.45207e-11
3.76356e-06
3.49691e-11
3.76353e-06
6.14223e-11
3.76349e-06
1.34868e-10
3.76345e-06
1.82238e-10
3.76337e-06
1.58577e-10
3.76327e-06
5.60594e-10
3.76304e-06
4.56395e-10
3.76296e-06
6.55554e-10
3.85946e-09
4.85549e-06
4.99394e-08
4.86188e-06
7.37597e-08
4.86692e-06
9.52827e-08
4.8686e-06
1.02757e-07
4.86908e-06
1.03797e-07
4.86974e-06
1.0522e-07
4.87085e-06
1.08693e-07
4.8723e-06
1.14836e-07
4.87387e-06
1.20909e-07
4.87554e-06
1.2745e-07
4.87717e-06
1.36239e-07
4.87863e-06
1.45474e-07
4.87983e-06
1.5553e-07
4.88099e-06
1.65045e-07
4.88155e-06
1.73042e-07
4.88165e-06
1.77087e-07
4.8813e-06
1.80178e-07
4.87935e-06
1.82203e-07
4.87684e-06
1.80577e-07
4.87497e-06
1.85601e-07
4.87368e-06
1.98443e-07
4.87304e-06
2.08097e-07
4.87254e-06
2.09138e-07
4.87144e-06
2.0232e-07
4.86916e-06
1.90793e-07
4.86567e-06
1.76135e-07
4.86125e-06
1.58628e-07
4.85566e-06
1.35974e-07
4.84968e-06
1.12293e-07
4.84396e-06
9.93731e-08
4.83781e-06
9.23355e-08
4.83098e-06
8.06212e-08
4.82339e-06
7.16102e-08
4.81495e-06
7.06312e-08
4.80618e-06
6.93867e-08
4.79753e-06
6.50912e-08
4.78913e-06
6.20731e-08
4.78124e-06
6.0991e-08
4.77368e-06
6.11213e-08
4.76605e-06
6.14093e-08
4.75827e-06
6.11305e-08
4.75002e-06
6.18347e-08
4.74124e-06
6.13532e-08
4.73263e-06
5.61803e-08
4.7245e-06
5.03667e-08
4.71656e-06
4.70161e-08
4.709e-06
4.20018e-08
4.70198e-06
3.62617e-08
4.69502e-06
3.52917e-08
4.68801e-06
3.5599e-08
4.68151e-06
3.05375e-08
4.67572e-06
2.32821e-08
4.67031e-06
1.98546e-08
4.66518e-06
1.88275e-08
4.66053e-06
1.61952e-08
4.65646e-06
1.22722e-08
4.6529e-06
8.99507e-09
4.64985e-06
6.49271e-09
4.64732e-06
4.04549e-09
4.64532e-06
1.86821e-09
4.64378e-06
2.9996e-10
4.64267e-06
-5.94539e-10
4.64193e-06
-1.16744e-09
4.64151e-06
-1.52627e-09
4.6414e-06
-1.91625e-09
4.6416e-06
-2.27363e-09
4.64211e-06
-2.67984e-09
4.64292e-06
-2.92503e-09
4.64393e-06
-3.00225e-09
4.64504e-06
-2.82866e-09
4.64613e-06
-2.44826e-09
4.64709e-06
-2.00391e-09
4.64786e-06
-1.45133e-09
4.64844e-06
-1.0862e-09
4.64883e-06
-6.26136e-10
4.64909e-06
-4.94565e-10
4.64923e-06
-1.77117e-10
4.64933e-06
-2.23405e-10
4.64935e-06
-4.70316e-12
4.64939e-06
-1.12701e-10
4.64938e-06
3.06044e-11
4.64939e-06
-5.17247e-11
4.64938e-06
1.53355e-11
4.64938e-06
-9.53825e-12
4.64938e-06
1.2557e-12
4.64937e-06
4.75725e-12
4.64937e-06
1.64274e-11
4.64936e-06
-9.48979e-12
4.64936e-06
5.31838e-11
4.64935e-06
-1.37381e-11
4.64934e-06
7.19431e-11
4.64932e-06
5.21623e-11
4.64932e-06
6.6018e-11
4.64927e-06
1.83556e-10
4.64927e-06
1.84339e-10
4.64917e-06
2.55005e-10
4.64916e-06
5.72384e-10
4.64894e-06
6.73323e-10
4.64895e-06
6.51751e-10
4.12807e-09
5.2458e-06
5.07613e-08
5.25056e-06
6.89965e-08
5.25567e-06
9.0174e-08
5.25839e-06
1.00035e-07
5.2595e-06
1.02692e-07
5.26005e-06
1.04666e-07
5.26078e-06
1.0797e-07
5.26176e-06
1.13847e-07
5.26309e-06
1.19589e-07
5.26479e-06
1.25743e-07
5.26688e-06
1.34153e-07
5.26893e-06
1.43419e-07
5.27095e-06
1.53516e-07
5.27328e-06
1.62713e-07
5.27547e-06
1.7085e-07
5.27755e-06
1.75009e-07
5.27974e-06
1.77988e-07
5.28083e-06
1.81117e-07
5.2813e-06
1.801e-07
5.2827e-06
1.84204e-07
5.28508e-06
1.96064e-07
5.28835e-06
2.04821e-07
5.29212e-06
2.05374e-07
5.29559e-06
1.98843e-07
5.29807e-06
1.88316e-07
5.29928e-06
1.74928e-07
5.29961e-06
1.58294e-07
5.29869e-06