/*--------------------------------*- C++ -*----------------------------------*\
| =========                 |                                                 |
| \\      /  F ield         | OpenFOAM: The Open Source CFD Toolbox           |
|  \\    /   O peration     | Version:  v1906                                 |
|   \\  /    A nd           | Web:      www.OpenFOAM.com                      |
|    \\/     M anipulation  |                                                 |
\*---------------------------------------------------------------------------*/
FoamFile
{
    version     2.0;
    format      ascii;
    class       volVectorField;
    location    "0.3";
    object      U;
}
// * * * * * * * * * * * * * * * * * * * * * * * * * * * * * * * * * * * * * //

dimensions      [0 1 -1 0 0 0 0];


internalField   nonuniform List<vector> 
4800
(
(0.960553 0.00019874 0)
(1.03841 -0.00048847 0)
(0.964351 0.00130157 0)
(1.03458 -0.0010551 0)
(0.966525 0.00178685 0)
(1.03244 -0.00169846 0)
(0.966651 -0.000438686 0)
(1.02737 0.00069955 0)
(0.973121 -0.000480345 0)
(1.02324 -0.000346358 0)
(0.974297 0.000936933 0)
(1.02039 0.000525012 0)
(0.976989 0.0015757 0)
(1.017 0.000432105 0)
(0.978953 0.000974817 0)
(1.01366 0.000376221 0)
(0.980338 0.000933383 0)
(1.01098 -0.000409946 0)
(0.981287 0.000521813 0)
(1.00841 0.000334206 0)
(0.982704 0.000127353 0)
(1.01438 -0.000407031 0)
(0.986693 0.00125047 0)
(1.01088 -0.000908623 0)
(0.988758 0.0016163 0)
(1.00915 -0.00145757 0)
(0.988854 -0.00051093 0)
(1.00486 0.000637956 0)
(0.993989 -0.000444997 0)
(1.00212 -0.000265609 0)
(0.993866 0.00106278 0)
(1.00079 0.000507225 0)
(0.995345 0.00166987 0)
(0.9991 0.000443313 0)
(0.995946 0.00105714 0)
(0.997628 0.000260062 0)
(0.995646 0.000968224 0)
(0.996675 -0.000245224 0)
(0.995401 0.00129277 0)
(0.995848 0.00157835 0)
(0.995967 0.000214363 0)
(1.00247 -0.000465523 0)
(0.997416 0.0012376 0)
(1.00171 -0.000885094 0)
(0.99779 0.00152604 0)
(1.00174 -0.00129889 0)
(0.996984 -0.000485523 0)
(0.999153 0.000612333 0)
(0.999236 -0.000510872 0)
(0.998274 -0.000115188 0)
(0.997518 0.000761383 0)
(0.998509 0.000794182 0)
(0.998045 0.00124407 0)
(0.998289 0.000830961 0)
(0.998128 0.000674363 0)
(0.997727 0.000589439 0)
(0.997388 0.000727046 0)
(0.997349 0.000506091 0)
(0.996941 0.00142476 0)
(0.996993 0.00209601 0)
(0.999511 0.000184077 0)
(1.00001 -0.000423753 0)
(0.999837 0.00124607 0)
(1.00037 -0.000846088 0)
(0.999697 0.00148113 0)
(1.00087 -0.00124599 0)
(0.998646 -0.000528926 0)
(0.99885 0.000694822 0)
(0.999929 -0.00061294 0)
(0.998197 9.56763e-05 0)
(0.998111 0.000655711 0)
(0.998743 0.000950417 0)
(0.998624 0.00113172 0)
(0.998864 0.000972778 0)
(0.998899 0.000611058 0)
(0.998512 0.000750031 0)
(0.99823 0.000872172 0)
(0.998169 0.00070581 0)
(0.997915 0.00145847 0)
(0.997867 0.00221201 0)
(1.00006 0.000188471 0)
(0.999739 -0.00038322 0)
(1.0002 0.00110462 0)
(1.00031 -0.000703324 0)
(1.00002 0.00125335 0)
(1.00083 -0.000954495 0)
(0.998941 -0.000627973 0)
(0.998964 0.00077991 0)
(0.999999 -0.000667749 0)
(0.998277 0.000261522 0)
(0.99828 0.00053126 0)
(0.998931 0.000951227 0)
(0.998811 0.00104503 0)
(0.99913 0.000901011 0)
(0.999213 0.000725202 0)
(0.998869 0.000725199 0)
(0.998648 0.0010612 0)
(0.998571 0.00104502 0)
(0.998427 0.00157198 0)
(0.998357 0.00237553 0)
(1.00012 0.000169969 0)
(0.999747 -0.000340273 0)
(1.00022 0.00105784 0)
(1.00032 -0.000628108 0)
(1.00007 0.00115161 0)
(1.00077 -0.000813642 0)
(0.999055 -0.000715749 0)
(0.998992 0.000920792 0)
(0.999972 -0.000762658 0)
(0.998341 0.000349446 0)
(0.998349 0.000554471 0)
(0.999021 0.000864026 0)
(0.998846 0.00110615 0)
(0.999172 0.000843809 0)
(0.999305 0.000835258 0)
(0.999004 0.000875007 0)
(0.998806 0.00118081 0)
(0.998729 0.00129327 0)
(0.998678 0.00171592 0)
(0.99863 0.00241633 0)
(1.00011 0.000153818 0)
(0.999771 -0.000276002 0)
(1.00021 0.000923521 0)
(1.00033 -0.000480208 0)
(1.00006 0.000937046 0)
(1.0007 -0.000570116 0)
(0.999134 -0.000771442 0)
(0.998987 0.00091763 0)
(0.999953 -0.000681316 0)
(0.998419 0.00033874 0)
(0.998373 0.00062712 0)
(0.999069 0.000720603 0)
(0.998855 0.00115631 0)
(0.999165 0.000833554 0)
(0.999336 0.000944724 0)
(0.999048 0.00102709 0)
(0.998877 0.00124358 0)
(0.99883 0.00150257 0)
(0.998839 0.00191222 0)
(0.998818 0.0024621 0)
(1.00011 0.000132346 0)
(0.999797 -0.000210288 0)
(1.0002 0.000816937 0)
(1.00033 -0.000371276 0)
(1.00006 0.000798785 0)
(1.00061 -0.000404212 0)
(0.999215 -0.000810548 0)
(0.998994 0.000930246 0)
(0.999911 -0.000564086 0)
(0.9985 0.000241359 0)
(0.998402 0.000706363 0)
(0.999114 0.000667102 0)
(0.998864 0.00118278 0)
(0.999142 0.000869863 0)
(0.999363 0.00100464 0)
(0.999089 0.00121145 0)
(0.998946 0.00133998 0)
(0.998933 0.00163492 0)
(0.998974 0.0020546 0)
(0.998971 0.00252838 0)
(1.0001 0.000109767 0)
(0.999818 -0.000129966 0)
(1.00019 0.000679761 0)
(1.00033 -0.000237312 0)
(1.00005 0.000642141 0)
(1.00053 -0.000268487 0)
(0.999287 -0.000750635 0)
(0.998998 0.000829479 0)
(0.99987 -0.000442809 0)
(0.998593 0.000234946 0)
(0.998432 0.00075787 0)
(0.999149 0.00062196 0)
(0.99888 0.00121506 0)
(0.999128 0.000956554 0)
(0.999411 0.00106036 0)
(0.999126 0.00141843 0)
(0.998989 0.00146811 0)
(0.999036 0.00169786 0)
(0.999117 0.00214235 0)
(0.999118 0.00260011 0)
(1.0001 8.57305e-05 0)
(0.999834 -5.25529e-05 0)
(1.00017 0.000562873 0)
(1.00032 -0.000144632 0)
(1.00004 0.000545021 0)
(1.00045 -0.000185187 0)
(0.999349 -0.000673507 0)
(0.999013 0.00075237 0)
(0.99983 -0.000323868 0)
(0.998674 0.000232649 0)
(0.998456 0.0007874 0)
(0.999197 0.000568871 0)
(0.998914 0.00127162 0)
(0.999102 0.00109974 0)
(0.999467 0.00105243 0)
(0.999186 0.0015563 0)
(0.999022 0.00165943 0)
(0.999138 0.0017655 0)
(0.999272 0.00219383 0)
(0.999265 0.00264761 0)
(1.00009 6.16457e-05 0)
(0.999845 2.78717e-05 0)
(1.00016 0.000452908 0)
(1.00031 -7.82228e-05 0)
(1.00002 0.000494921 0)
(1.00038 -0.000156102 0)
(0.999407 -0.000553757 0)
(0.999021 0.000702064 0)
(0.999789 -0.000257325 0)
(0.998764 0.000249124 0)
(0.998476 0.000890782 0)
(0.999241 0.000520393 0)
(0.998973 0.0012764 0)
(0.999065 0.00130424 0)
(0.999522 0.00107304 0)
(0.999282 0.00160647 0)
(0.999044 0.00185459 0)
(0.999209 0.00185401 0)
(0.999428 0.00218458 0)
(0.999426 0.00263691 0)
(1.00008 4.13237e-05 0)
(0.99985 9.69017e-05 0)
(1.00014 0.000377521 0)
(1.00031 -6.54466e-05 0)
(1 0.000479425 0)
(1.0003 -0.000122841 0)
(0.999462 -0.000477434 0)
(0.999027 0.000696122 0)
(0.999749 -0.000183925 0)
(0.998863 0.000229615 0)
(0.998482 0.00100939 0)
(0.999273 0.000520046 0)
(0.999073 0.00119372 0)
(0.999031 0.00152243 0)
(0.999543 0.00119044 0)
(0.999405 0.00158479 0)
(0.99909 0.00199378 0)
(0.99925 0.00200229 0)
(0.999568 0.00219061 0)
(0.999606 0.00259691 0)
(1.00007 2.45013e-05 0)
(0.999851 0.000147075 0)
(1.00011 0.000345118 0)
(1.00031 -9.45522e-05 0)
(0.999984 0.00048079 0)
(1.00023 -6.89759e-05 0)
(0.999517 -0.000437554 0)
(0.999033 0.000708662 0)
(0.999693 -7.98766e-05 0)
(0.998975 0.000154189 0)
(0.998502 0.00112084 0)
(0.999271 0.00063602 0)
(0.999199 0.00107575 0)
(0.999035 0.00165287 0)
(0.999528 0.00137452 0)
(0.999524 0.00156892 0)
(0.999172 0.0020636 0)
(0.999273 0.00215736 0)
(0.999666 0.00223694 0)
(0.999781 0.00253946 0)
(1.00007 1.53594e-05 0)
(0.99985 0.000171139 0)
(1.00007 0.000353833 0)
(1.00031 -0.000147501 0)
(0.999972 0.000462721 0)
(1.00014 2.40399e-05 0)
(0.999569 -0.000423111 0)
(0.999048 0.000710922 0)
(0.999621 7.96751e-05 0)
(0.999091 9.32389e-05 0)
(0.998549 0.00114411 0)
(0.999241 0.000833295 0)
(0.99932 0.00101469 0)
(0.999082 0.001687 0)
(0.999496 0.00156314 0)
(0.999625 0.00159139 0)
(0.999287 0.00207477 0)
(0.999302 0.00227442 0)
(0.999725 0.00230774 0)
(0.999927 0.0025107 0)
(1.00006 1.19679e-05 0)
(0.999853 0.000168441 0)
(1.00003 0.000393059 0)
(1.0003 -0.000193619 0)
(0.999971 0.000398282 0)
(1.00005 0.000143624 0)
(0.999615 -0.000397305 0)
(0.99908 0.000638594 0)
(0.999534 0.000288916 0)
(0.99919 8.13794e-05 0)
(0.998636 0.00108376 0)
(0.999207 0.00102206 0)
(0.999419 0.00103318 0)
(0.999166 0.00168471 0)
(0.999465 0.00173409 0)
(0.999693 0.00165185 0)
(0.99942 0.00204248 0)
(0.999349 0.00234426 0)
(0.999759 0.00237148 0)
(1.00004 0.00250287 0)
(1.00005 1.60128e-05 0)
(0.999859 0.00014095 0)
(0.999982 0.00044082 0)
(1.00028 -0.000196342 0)
(0.999986 0.000280994 0)
(0.999962 0.000277426 0)
(0.999636 -0.000313128 0)
(0.999138 0.00052104 0)
(0.999457 0.000477822 0)
(0.999257 0.000174838 0)
(0.998747 0.00100655 0)
(0.999187 0.00115291 0)
(0.999497 0.00110586 0)
(0.999275 0.00167317 0)
(0.999444 0.00186899 0)
(0.999721 0.00174276 0)
(0.999558 0.00199383 0)
(0.999424 0.00236242 0)
(0.999778 0.00242957 0)
(1.00012 0.00249408 0)
(1.00004 2.53274e-05 0)
(0.999873 0.00010099 0)
(0.999938 0.000477574 0)
(1.00024 -0.000139716 0)
(1.00001 0.00014467 0)
(0.999895 0.000369523 0)
(0.999636 -0.000168828 0)
(0.999206 0.000422471 0)
(0.999404 0.000587086 0)
(0.999297 0.000333889 0)
(0.998865 0.000964769 0)
(0.999192 0.00122938 0)
(0.99956 0.0011789 0)
(0.9994 0.00164869 0)
(0.999445 0.00196042 0)
(0.999711 0.00186849 0)
(0.999677 0.00197048 0)
(0.999531 0.00231656 0)
(0.999795 0.00246584 0)
(1.00018 0.00248469 0)
(1.00004 3.61034e-05 0)
(0.999892 6.50702e-05 0)
(0.999904 0.000485264 0)
(1.00019 -4.11567e-05 0)
(1.00004 2.46561e-05 0)
(0.999856 0.000369647 0)
(0.999618 2.20605e-05 0)
(0.999273 0.000376161 0)
(0.999386 0.000623001 0)
(0.999329 0.000488772 0)
(0.998974 0.000980454 0)
(0.999209 0.00128456 0)
(0.999613 0.00124942 0)
(0.999539 0.0016117 0)
(0.999487 0.00199707 0)
(0.999683 0.00199795 0)
(0.999747 0.00200345 0)
(0.999653 0.00223827 0)
(0.999834 0.00245796 0)
(1.0002 0.00248472 0)
(1.00003 4.57444e-05 0)
(0.999915 3.85928e-05 0)
(0.999884 0.000457453 0)
(1.00013 8.25912e-05 0)
(1.00007 -4.17489e-05 0)
(0.999856 0.000297674 0)
(0.999608 0.000200488 0)
(0.999321 0.000420296 0)
(0.99939 0.000639918 0)
(0.999372 0.000596765 0)
(0.999084 0.00100884 0)
(0.999239 0.00134626 0)
(0.99965 0.00133314 0)
(0.999677 0.00158114 0)
(0.999573 0.0019741 0)
(0.999667 0.00209054 0)
(0.999767 0.00207698 0)
(0.999758 0.00220041 0)
(0.999906 0.00240957 0)
(1.00022 0.00247762 0)
(1.00002 5.09684e-05 0)
(0.999937 2.98712e-05 0)
(0.999882 0.000397385 0)
(1.00007 0.000209112 0)
(1.00007 -3.44675e-05 0)
(0.99988 0.000209462 0)
(0.999622 0.000294856 0)
(0.999361 0.000516735 0)
(0.999399 0.000686193 0)
(0.999418 0.000674385 0)
(0.999203 0.00101645 0)
(0.999289 0.00139082 0)
(0.999674 0.00143214 0)
(0.999797 0.00157568 0)
(0.999696 0.00192173 0)
(0.999692 0.00211577 0)
(0.99977 0.00213473 0)
(0.999826 0.00221488 0)
(0.99998 0.00235191 0)
(1.00024 0.00243921 0)
(1.00002 4.95229e-05 0)
(0.999956 4.35861e-05 0)
(0.999894 0.000322059 0)
(1.00002 0.000297691 0)
(1.00005 4.72017e-05 0)
(0.999913 0.000137237 0)
(0.999668 0.00030699 0)
(0.999408 0.000605695 0)
(0.999407 0.000791235 0)
(0.999462 0.000754689 0)
(0.99933 0.00100778 0)
(0.999375 0.0013925 0)
(0.9997 0.00151947 0)
(0.999888 0.00161488 0)
(0.999827 0.00187032 0)
(0.999751 0.00208538 0)
(0.999792 0.00214875 0)
(0.99987 0.00222306 0)
(1.00003 0.00231507 0)
(1.00029 0.00238874 0)
(1.00001 4.44e-05 0)
(0.999968 6.9656e-05 0)
(0.999915 0.000255935 0)
(0.999987 0.000329141 0)
(1.00001 0.000166104 0)
(0.999931 0.000130019 0)
(0.999741 0.000280929 0)
(0.999493 0.000634616 0)
(0.999422 0.000905067 0)
(0.999478 0.000884352 0)
(0.999446 0.00101025 0)
(0.999492 0.00134477 0)
(0.999756 0.00156152 0)
(0.999959 0.00167536 0)
(0.999941 0.00185282 0)
(0.999835 0.00204581 0)
(0.999833 0.00213753 0)
(0.999917 0.00218986 0)
(1.00008 0.00228045 0)
(1.00035 0.00234461 0)
(1.00001 3.56952e-05 0)
(0.999975 0.000100598 0)
(0.999933 0.000213748 0)
(0.999977 0.000309183 0)
(0.99998 0.0002736 0)
(0.99993 0.000197716 0)
(0.999812 0.000257942 0)
(0.999604 0.000600072 0)
(0.999475 0.0009713 0)
(0.999484 0.00104218 0)
(0.999519 0.00107441 0)
(0.999625 0.00129315 0)
(0.999855 0.00153017 0)
(1.00004 0.00170703 0)
(1.00004 0.00186513 0)
(0.999921 0.00202219 0)
(0.999873 0.00211735 0)
(0.999961 0.0021429 0)
(1.00014 0.00222273 0)
(1.0004 0.00229152 0)
(1.00001 2.98989e-05 0)
(0.999976 0.000123085 0)
(0.999942 0.000200244 0)
(0.999983 0.000271475 0)
(0.999961 0.000338517 0)
(0.999905 0.000307473 0)
(0.999861 0.000281864 0)
(0.999742 0.000540857 0)
(0.999578 0.00096101 0)
(0.999502 0.00117086 0)
(0.999552 0.00119387 0)
(0.999717 0.00127939 0)
(0.99998 0.00146082 0)
(1.00016 0.00166683 0)
(1.00014 0.0018648 0)
(1.00001 0.00201609 0)
(0.99991 0.00210303 0)
(0.999993 0.00212053 0)
(1.0002 0.00215691 0)
(1.00046 0.0022156 0)
(1.00001 2.83198e-05 0)
(0.999977 0.00013176 0)
(0.999942 0.000212527 0)
(0.999992 0.000238128 0)
(0.999966 0.000346106 0)
(0.999882 0.000416416 0)
(0.999874 0.00037218 0)
(0.999856 0.00050001 0)
(0.999728 0.000883519 0)
(0.999572 0.00122055 0)
(0.999557 0.0013273 0)
(0.999762 0.00133571 0)
(1.00008 0.00140875 0)
(1.0003 0.00158099 0)
(1.00029 0.00180209 0)
(1.0001 0.00199785 0)
(0.99995 0.00209779 0)
(0.999999 0.00211834 0)
(1.00023 0.0021128 0)
(1.00051 0.00213104 0)
(1 3.2622e-05 0)
(0.999981 0.000127703 0)
(0.999936 0.000231999 0)
(0.999995 0.000229128 0)
(0.99999 0.000322773 0)
(0.999877 0.00048235 0)
(0.999858 0.000491017 0)
(0.999936 0.000514732 0)
(0.999892 0.000797886 0)
(0.999703 0.00117612 0)
(0.999592 0.00140771 0)
(0.999746 0.00144138 0)
(1.00013 0.00141106 0)
(1.00043 0.00149539 0)
(1.00047 0.00168945 0)
(1.00025 0.00191902 0)
(1.00001 0.00207932 0)
(0.999996 0.00212165 0)
(1.0002 0.00209923 0)
(1.00053 0.00207861 0)
(0.999998 4.07217e-05 0)
(0.999988 0.000116798 0)
(0.999934 0.000247139 0)
(0.999987 0.000248965 0)
(1.00002 0.000297623 0)
(0.999905 0.000491049 0)
(0.999841 0.000600394 0)
(0.999959 0.000591956 0)
(1.00003 0.00073316 0)
(0.999878 0.0010798 0)
(0.999685 0.00139549 0)
(0.999735 0.00152069 0)
(1.0001 0.00147829 0)
(1.00051 0.00145327 0)
(1.00064 0.00157066 0)
(1.00046 0.00178579 0)
(1.00014 0.00200347 0)
(1.00001 0.00210484 0)
(1.00016 0.00209966 0)
(1.0005 0.0020667 0)
(0.999995 4.99336e-05 0)
(0.999996 0.000110276 0)
(0.999939 0.000248416 0)
(0.999974 0.000282573 0)
(1.00004 0.000290902 0)
(0.999958 0.000464189 0)
(0.999849 0.000657821 0)
(0.999949 0.00069236 0)
(1.00012 0.000731751 0)
(1.00006 0.000976428 0)
(0.999841 0.00130799 0)
(0.999766 0.00153588 0)
(1.00005 0.00154495 0)
(1.00049 0.00147574 0)
(1.00076 0.00148704 0)
(1.00068 0.00163814 0)
(1.00035 0.00186481 0)
(1.00009 0.00203286 0)
(1.00014 0.00208642 0)
(1.00042 0.0020619 0)
(0.999992 5.66739e-05 0)
(1 0.000111742 0)
(0.999955 0.000237554 0)
(0.999963 0.000313386 0)
(1.00005 0.00030982 0)
(1.00002 0.000433299 0)
(0.999893 0.000658563 0)
(0.999936 0.000772159 0)
(1.00014 0.000778985 0)
(1.0002 0.000907898 0)
(1.00004 0.00118597 0)
(0.999871 0.0014641 0)
(1.00001 0.00157322 0)
(1.00042 0.00151381 0)
(1.00078 0.00146865 0)
(1.00085 0.00152058 0)
(1.00059 0.0016993 0)
(1.00027 0.00190247 0)
(1.00018 0.00201791 0)
(1.00035 0.00203191 0)
(0.999992 5.94913e-05 0)
(1.00001 0.000121533 0)
(0.999978 0.000222841 0)
(0.999964 0.000329412 0)
(1.00005 0.000344041 0)
(1.00008 0.000416502 0)
(0.999968 0.000622022 0)
(0.999949 0.000803186 0)
(1.00014 0.000838405 0)
(1.00029 0.000887517 0)
(1.00021 0.0010792 0)
(1.00004 0.0013375 0)
(1.00004 0.00152544 0)
(1.00034 0.00153389 0)
(1.00073 0.0014726 0)
(1.00092 0.00146042 0)
(1.00081 0.00155436 0)
(1.00051 0.00173385 0)
(1.0003 0.00188868 0)
(1.00035 0.00195573 0)
(0.999992 5.87133e-05 0)
(1.00001 0.000135046 0)
(1 0.000211825 0)
(0.999978 0.000327495 0)
(1.00005 0.000374842 0)
(1.00012 0.000419804 0)
(1.00005 0.000579877 0)
(0.999998 0.000782252 0)
(1.00013 0.000873023 0)
(1.00032 0.000898064 0)
(1.00035 0.00100338 0)
(1.00022 0.00120826 0)
(1.00014 0.00141179 0)
(1.00031 0.0014991 0)
(1.00064 0.00146978 0)
(1.00091 0.00142899 0)
(1.00094 0.00145828 0)
(1.00074 0.00156961 0)
(1.0005 0.00172468 0)
(1.00044 0.00182815 0)
(0.999994 5.57163e-05 0)
(1.00001 0.000146515 0)
(1.00002 0.000207197 0)
(1 0.000313624 0)
(1.00005 0.000390169 0)
(1.00014 0.000433663 0)
(1.00013 0.000546087 0)
(1.00007 0.000731212 0)
(1.00014 0.000864602 0)
(1.00032 0.000905965 0)
(1.00042 0.000961679 0)
(1.00037 0.00109583 0)
(1.00028 0.00127761 0)
(1.00035 0.00140129 0)
(1.00058 0.00142938 0)
(1.00085 0.00139689 0)
(1.00097 0.00139053 0)
(1.0009 0.00144438 0)
(1.00072 0.00155737 0)
(1.0006 0.00166888 0)
(0.999996 5.22858e-05 0)
(1.00001 0.000151942 0)
(1.00004 0.000206817 0)
(1.00003 0.000295617 0)
(1.00007 0.000386517 0)
(1.00015 0.000442624 0)
(1.00018 0.000523965 0)
(1.00016 0.000672793 0)
(1.00019 0.000818292 0)
(1.00033 0.000887829 0)
(1.00046 0.000930846 0)
(1.00048 0.00101011 0)
(1.00043 0.00114639 0)
(1.00043 0.00127313 0)
(1.00058 0.00133843 0)
(1.00079 0.00134056 0)
(1.00096 0.00132752 0)
(1.00098 0.00134745 0)
(1.00089 0.00141346 0)
(1.00077 0.00150586 0)
(0.999998 4.91719e-05 0)
(1.00001 0.00015045 0)
(1.00005 0.0002059 0)
(1.00006 0.000277422 0)
(1.00009 0.000367666 0)
(1.00016 0.000436524 0)
(1.00022 0.000505181 0)
(1.00023 0.000617053 0)
(1.00025 0.000749795 0)
(1.00035 0.000838782 0)
(1.00047 0.000887035 0)
(1.00055 0.000940433 0)
(1.00054 0.00103035 0)
(1.00054 0.0011379 0)
(1.00062 0.00121556 0)
(1.00077 0.00124688 0)
(1.00093 0.00124844 0)
(1.00101 0.00125579 0)
(1.00099 0.00129077 0)
(1.00092 0.00135401 0)
(0.999999 4.61325e-05 0)
(1.00001 0.000143191 0)
(1.00005 0.000200212 0)
(1.00008 0.000258606 0)
(1.00011 0.000339281 0)
(1.00018 0.000413619 0)
(1.00025 0.000479307 0)
(1.00028 0.00056471 0)
(1.00031 0.000673301 0)
(1.00038 0.000764837 0)
(1.00049 0.000821873 0)
(1.00058 0.000866832 0)
(1.00062 0.000927293 0)
(1.00063 0.00100669 0)
(1.00068 0.00107948 0)
(1.00078 0.0011247 0)
(1.00091 0.00114278 0)
(1.00101 0.00115304 0)
(1.00105 0.00117294 0)
(1.00103 0.00121253 0)
(0.999999 4.27247e-05 0)
(1.00002 0.000131185 0)
(1.00006 0.00018761 0)
(1.0001 0.000236821 0)
(1.00014 0.000304757 0)
(1.00019 0.000376186 0)
(1.00027 0.000439975 0)
(1.00032 0.000509471 0)
(1.00037 0.000594436 0)
(1.00043 0.000675809 0)
(1.00052 0.000735782 0)
(1.00061 0.000779109 0)
(1.00067 0.000824371 0)
(1.00071 0.000880878 0)
(1.00075 0.000939659 0)
(1.00082 0.000986156 0)
(1.00092 0.00101352 0)
(1.00101 0.00103024 0)
(1.00107 0.00104642 0)
(1.0011 0.00107195 0)
(0.999999 3.83768e-05 0)
(1.00002 0.000115196 0)
(1.00006 0.000167412 0)
(1.00011 0.000209523 0)
(1.00016 0.000264226 0)
(1.00021 0.000326978 0)
(1.00029 0.000385955 0)
(1.00035 0.000444118 0)
(1.00041 0.000510114 0)
(1.00047 0.000577218 0)
(1.00055 0.000632525 0)
(1.00063 0.000674143 0)
(1.00071 0.000710814 0)
(1.00076 0.000751949 0)
(1.00081 0.000795956 0)
(1.00087 0.00083607 0)
(1.00094 0.000865229 0)
(1.00103 0.000885206 0)
(1.00109 0.000901359 0)
(1.00114 0.000919975 0)
(0.999999 3.28311e-05 0)
(1.00002 9.59283e-05 0)
(1.00007 0.000140361 0)
(1.00012 0.000175455 0)
(1.00017 0.000217686 0)
(1.00023 0.000268154 0)
(1.0003 0.000317855 0)
(1.00037 0.000364691 0)
(1.00044 0.000413777 0)
(1.0005 0.000464822 0)
(1.00058 0.000510019 0)
(1.00066 0.000545995 0)
(1.00073 0.000575533 0)
(1.0008 0.000605069 0)
(1.00085 0.000636294 0)
(1.00091 0.000666816 0)
(1.00097 0.000692042 0)
(1.00104 0.000710761 0)
(1.00111 0.000725069 0)
(1.00117 0.000738676 0)
(0.999999 2.65585e-05 0)
(1.00003 7.68755e-05 0)
(1.00007 0.000113429 0)
(1.00013 0.000143283 0)
(1.00018 0.000177537 0)
(1.00025 0.000218939 0)
(1.00031 0.000261891 0)
(1.00039 0.000302494 0)
(1.00046 0.000342223 0)
(1.00053 0.000382267 0)
(1.0006 0.000419767 0)
(1.00067 0.00045192 0)
(1.00075 0.000478695 0)
(1.00082 0.000503274 0)
(1.00088 0.000527846 0)
(1.00094 0.000552159 0)
(1.001 0.000574177 0)
(1.00106 0.000592369 0)
(1.00112 0.000607031 0)
(1.00118 0.00061967 0)
(1 1.16639e-05 0)
(1.00003 3.41245e-05 0)
(1.00008 5.07743e-05 0)
(1.00013 6.49291e-05 0)
(1.0002 8.11026e-05 0)
(1.00026 0.000100696 0)
(1.00033 0.000121693 0)
(1.00041 0.000142017 0)
(1.00049 0.000161396 0)
(1.00056 0.000180412 0)
(1.00063 0.000198506 0)
(1.0007 0.000214703 0)
(1.00078 0.000228653 0)
(1.00085 0.000241163 0)
(1.00091 0.000253133 0)
(1.00098 0.000264815 0)
(1.00104 0.000275821 0)
(1.0011 0.000285577 0)
(1.00115 0.000293946 0)
(1.00121 0.00030119 0)
(0.982431 0.00184124 0)
(0.957992 0.00315137 0)
(0.933947 0.00344475 0)
(0.91022 0.00337246 0)
(0.885686 0.00330504 0)
(0.860638 0.00329633 0)
(0.83533 0.00332507 0)
(0.809587 0.00337987 0)
(0.783168 0.00342544 0)
(0.756364 0.00345258 0)
(0.728751 0.00353771 0)
(0.699793 0.00358428 0)
(0.670116 0.0036232 0)
(0.639348 0.00364912 0)
(0.607957 0.0034875 0)
(0.577057 0.00330828 0)
(0.546014 0.00311325 0)
(0.51602 0.00272957 0)
(0.487804 0.00252304 0)
(0.45943 0.00272707 0)
(0.429606 0.00289711 0)
(0.398387 0.00271532 0)
(0.367027 0.00238131 0)
(0.337159 0.00202811 0)
(0.310093 0.00157842 0)
(0.286616 0.00102166 0)
(0.267223 0.000421415 0)
(0.252694 -7.3442e-05 0)
(0.242823 -0.000363083 0)
(0.235971 -0.000473268 0)
(0.230992 -0.000499308 0)
(0.227609 -0.000523707 0)
(0.225583 -0.00051975 0)
(0.224352 -0.000473952 0)
(0.223398 -0.000418759 0)
(0.2226 -0.000371435 0)
(0.221952 -0.000303084 0)
(0.221218 -0.000234092 0)
(0.22018 -0.000171037 0)
(0.218865 -0.000113203 0)
(0.217345 -8.06853e-05 0)
(0.215669 -5.69791e-05 0)
(0.213939 -3.86133e-05 0)
(0.212344 -5.27701e-05 0)
(0.211083 -7.06394e-05 0)
(0.21017 -6.27425e-05 0)
(0.209493 -4.41814e-05 0)
(0.208996 -3.45787e-05 0)
(0.208558 -1.90969e-05 0)
(0.207996 -2.35788e-06 0)
(0.20742 -2.73591e-06 0)
(0.207122 -1.14798e-05 0)
(0.207099 -8.41573e-06 0)
(0.207088 3.84925e-06 0)
(0.207009 7.39155e-06 0)
(0.206982 5.37378e-06 0)
(0.207076 6.32266e-06 0)
(0.207213 1.01262e-05 0)
(0.207359 1.07641e-05 0)
(0.207498 8.67976e-06 0)
(0.207652 5.63494e-06 0)
(0.207775 3.28421e-06 0)
(0.207889 7.21e-07 0)
(0.207959 -9.26141e-07 0)
(0.208035 -2.20877e-06 0)
(0.20807 -2.72267e-06 0)
(0.208125 -3.04316e-06 0)
(0.208138 -2.74673e-06 0)
(0.208182 -2.26298e-06 0)
(0.20818 -1.7099e-06 0)
(0.208215 -1.06371e-06 0)
(0.208203 -8.4066e-07 0)
(0.208231 -3.22731e-07 0)
(0.208216 -4.63824e-07 0)
(0.208237 5.31794e-08 0)
(0.208224 -3.47639e-07 0)
(0.208238 1.75984e-07 0)
(0.20823 -2.59462e-07 0)
(0.208239 1.2506e-07 0)
(0.208234 -1.0228e-07 0)
(0.20824 -3.68262e-08 0)
(0.208234 8.6471e-08 0)
(0.208244 -1.6607e-07 0)
(0.208232 1.84981e-07 0)
(0.208249 -1.84805e-07 0)
(0.208228 1.45281e-07 0)
(0.208254 -5.80134e-08 0)
(0.208222 2.07492e-09 0)
(0.208257 8.33459e-08 0)
(0.208216 -2.13133e-08 0)
(0.208259 3.86304e-08 0)
(0.208204 2.16574e-07 0)
(0.208259 -1.43797e-07 0)
(0.208181 4.69161e-07 0)
(0.208251 1.31967e-07 0)
(0.208141 3.2666e-07 0)
(0.208223 9.83448e-07 0)
(0.208036 2.15038e-07 0)
(0.208201 2.87793e-06 0)
(0.20766 8.97729e-06 0)
(0.995406 0.00374824 0)
(0.994101 0.00595447 0)
(0.992995 0.00661666 0)
(0.992098 0.00647124 0)
(0.99066 0.00629439 0)
(0.9883 0.00622577 0)
(0.985649 0.00625331 0)
(0.982279 0.00634214 0)
(0.978159 0.0064157 0)
(0.973495 0.00646204 0)
(0.967723 0.0065752 0)
(0.961009 0.00669336 0)
(0.952955 0.00681044 0)
(0.943965 0.00695494 0)
(0.933843 0.00697608 0)
(0.922854 0.00689679 0)
(0.911215 0.00677346 0)
(0.89866 0.00652806 0)
(0.886202 0.0062542 0)
(0.872983 0.00621831 0)
(0.858432 0.00644124 0)
(0.842931 0.00667692 0)
(0.826351 0.00665764 0)
(0.809427 0.00629929 0)
(0.792461 0.00570296 0)
(0.776109 0.00503429 0)
(0.760784 0.00428663 0)
(0.746338 0.00338115 0)
(0.733624 0.00254762 0)
(0.721672 0.00201079 0)
(0.709866 0.00163032 0)
(0.699514 0.00123577 0)
(0.690164 0.000919548 0)
(0.681175 0.000792796 0)
(0.672905 0.000713353 0)
(0.664912 0.00057358 0)
(0.6572 0.000491025 0)
(0.650143 0.000486912 0)
(0.643168 0.000477923 0)
(0.636315 0.000470127 0)
(0.629953 0.000464898 0)
(0.623592 0.00044885 0)
(0.617316 0.000426408 0)
(0.611749 0.000365147 0)
(0.606647 0.000282526 0)
(0.601783 0.00022163 0)
(0.597645 0.000166201 0)
(0.594253 0.000111955 0)
(0.591083 0.000108852 0)
(0.588061 0.000127323 0)
(0.585514 9.0752e-05 0)
(0.58352 2.28593e-05 0)
(0.581956 -3.09902e-06 0)
(0.580688 9.63002e-06 0)
(0.579686 6.7073e-06 0)
(0.578933 -1.58038e-05 0)
(0.578488 -3.25381e-05 0)
(0.578305 -3.54196e-05 0)
(0.578386 -3.60662e-05 0)
(0.578608 -3.49692e-05 0)
(0.578979 -3.06504e-05 0)
(0.579337 -2.25809e-05 0)
(0.579737 -1.58163e-05 0)
(0.580022 -9.47624e-06 0)
(0.580343 -5.81003e-06 0)
(0.580525 -2.405e-06 0)
(0.580778 -1.25496e-06 0)
(0.580877 -6.71863e-08 0)
(0.581075 -5.63198e-08 0)
(0.581105 1.18213e-08 0)
(0.581252 1.28289e-07 0)
(0.581231 -3.64864e-07 0)
(0.581335 3.2735e-07 0)
(0.581292 -6.55923e-07 0)
(0.581363 5.88994e-07 0)
(0.581325 -7.67299e-07 0)
(0.581367 5.89482e-07 0)
(0.581345 -6.22683e-07 0)
(0.581365 3.12793e-07 0)
(0.581354 -2.60245e-07 0)
(0.58137 -1.04509e-07 0)
(0.581351 1.67228e-07 0)
(0.581385 -3.65943e-07 0)
(0.581335 2.95359e-07 0)
(0.581406 -2.27598e-07 0)
(0.581317 1.54876e-08 0)
(0.581423 2.13347e-07 0)
(0.581305 -3.22157e-07 0)
(0.581428 4.58133e-07 0)
(0.581298 -1.73437e-07 0)
(0.581433 2.06758e-07 0)
(0.581276 4.88138e-07 0)
(0.581452 1.57936e-08 0)
(0.581225 9.08886e-07 0)
(0.581468 1.06328e-06 0)
(0.581161 4.10102e-07 0)
(0.581446 3.70966e-06 0)
(0.581044 1.08464e-06 0)
(0.581394 4.56853e-06 0)
(0.580747 2.36282e-05 0)
(0.996627 0.00295653 0)
(0.995672 0.00443395 0)
(0.995404 0.00524202 0)
(0.995868 0.0052311 0)
(0.996386 0.00510068 0)
(0.996548 0.00510015 0)
(0.996851 0.00520142 0)
(0.997077 0.00541858 0)
(0.997133 0.00563535 0)
(0.997249 0.00588401 0)
(0.997011 0.00621552 0)
(0.996558 0.00654176 0)
(0.995594 0.00688808 0)
(0.994446 0.00722328 0)
(0.992971 0.0074545 0)
(0.991038 0.00748344 0)
(0.988787 0.00746324 0)
(0.985874 0.00732199 0)
(0.98281 0.00701002 0)
(0.979255 0.00701141 0)
(0.975316 0.00740175 0)
(0.971555 0.00776384 0)
(0.967451 0.0077333 0)
(0.963015 0.00731586 0)
(0.95812 0.00671896 0)
(0.953019 0.00602982 0)
(0.948219 0.00527704 0)
(0.943335 0.0043536 0)
(0.938523 0.00343904 0)
(0.933675 0.00295199 0)
(0.928584 0.00266316 0)
(0.923702 0.00221029 0)
(0.918703 0.00183398 0)
(0.913488 0.00171388 0)
(0.908622 0.00162114 0)
(0.903833 0.00148625 0)
(0.898983 0.00139473 0)
(0.894515 0.00136392 0)
(0.890143 0.00136631 0)
(0.885638 0.0013461 0)
(0.881222 0.00130091 0)
(0.876677 0.00128155 0)
(0.872034 0.00123534 0)
(0.867749 0.00109497 0)
(0.863694 0.000950205 0)
(0.859672 0.000857627 0)
(0.855999 0.000732479 0)
(0.852696 0.000598651 0)
(0.849475 0.000563996 0)
(0.846393 0.00056153 0)
(0.84366 0.000458488 0)
(0.841202 0.00031275 0)
(0.838981 0.000242221 0)
(0.837031 0.000223949 0)
(0.835372 0.000180954 0)
(0.83391 0.000115942 0)
(0.832714 6.38908e-05 0)
(0.831752 2.80268e-05 0)
(0.831089 -4.66452e-06 0)
(0.83059 -3.03955e-05 0)
(0.83035 -4.58931e-05 0)
(0.830182 -4.955e-05 0)
(0.830221 -4.85896e-05 0)
(0.830221 -4.43068e-05 0)
(0.830423 -4.11977e-05 0)
(0.830535 -3.59713e-05 0)
(0.830887 -3.15835e-05 0)
(0.831087 -2.57297e-05 0)
(0.831521 -2.06187e-05 0)
(0.831706 -1.51628e-05 0)
(0.832093 -1.04789e-05 0)
(0.832177 -7.29588e-06 0)
(0.832448 -3.99216e-06 0)
(0.832437 -3.36135e-06 0)
(0.832602 -9.94431e-07 0)
(0.832553 -1.91216e-06 0)
(0.832647 8.00974e-08 0)
(0.832601 -1.35264e-06 0)
(0.832654 3.19745e-07 0)
(0.832616 -8.46065e-07 0)
(0.832663 1.96508e-07 0)
(0.832609 -3.79138e-07 0)
(0.832683 -7.50889e-09 0)
(0.832588 -1.23863e-07 0)
(0.832706 1.47637e-08 0)
(0.832569 -1.75748e-07 0)
(0.832719 3.10353e-07 0)
(0.832563 -3.60614e-07 0)
(0.832716 5.9533e-07 0)
(0.832562 -2.82664e-07 0)
(0.832718 6.19162e-07 0)
(0.832541 3.02947e-07 0)
(0.83274 6.21796e-07 0)
(0.832494 1.11481e-06 0)
(0.832757 1.82934e-06 0)
(0.832451 1.05334e-06 0)
(0.832722 5.33767e-06 0)
(0.8324 3.38856e-06 0)
(0.832644 5.67066e-06 0)
(0.832194 3.3374e-05 0)
(0.997566 0.00283223 0)
(0.996623 0.00405081 0)
(0.996138 0.00511638 0)
(0.996504 0.00541169 0)
(0.996943 0.00537787 0)
(0.997209 0.00543244 0)
(0.997583 0.00555944 0)
(0.997966 0.00575564 0)
(0.99834 0.00592309 0)
(0.998804 0.00614688 0)
(0.999243 0.00646771 0)
(0.999544 0.00677514 0)
(0.999697 0.00709573 0)
(0.999941 0.00739453 0)
(1.00013 0.00758633 0)
(1.00028 0.00758455 0)
(1.00028 0.00756392 0)
(0.99994 0.00744046 0)
(0.999608 0.00718682 0)
(0.998934 0.00730836 0)
(0.998268 0.00778536 0)
(0.998157 0.0080972 0)
(0.998141 0.00799793 0)
(0.998038 0.00760433 0)
(0.997563 0.00705991 0)
(0.996822 0.00641368 0)
(0.996288 0.00568638 0)
(0.995615 0.00478477 0)
(0.994601 0.00387582 0)
(0.993385 0.00336682 0)
(0.992175 0.00305475 0)
(0.990964 0.00259616 0)
(0.989222 0.00224287 0)
(0.987229 0.00215744 0)
(0.985571 0.00208485 0)
(0.983803 0.00192193 0)
(0.981858 0.0017913 0)
(0.980222 0.00172883 0)
(0.978693 0.00170355 0)
(0.977131 0.00167882 0)
(0.975649 0.00164331 0)
(0.974005 0.00163235 0)
(0.972241 0.00158327 0)
(0.970576 0.00141587 0)
(0.968836 0.00124095 0)
(0.967067 0.00113583 0)
(0.96554 0.000993964 0)
(0.964067 0.000835484 0)
(0.962505 0.000795718 0)
(0.961099 0.000791444 0)
(0.959881 0.000665399 0)
(0.958593 0.000491179 0)
(0.957318 0.000405622 0)
(0.956229 0.000378184 0)
(0.955318 0.00031972 0)
(0.954417 0.000235184 0)
(0.953617 0.000165521 0)
(0.952912 0.000113989 0)
(0.952384 6.6267e-05 0)
(0.951886 2.60053e-05 0)
(0.951564 -2.55274e-06 0)
(0.951242 -1.6118e-05 0)
(0.95112 -2.37637e-05 0)
(0.95093 -2.75598e-05 0)
(0.950964 -3.22562e-05 0)
(0.950872 -3.64344e-05 0)
(0.951061 -4.17918e-05 0)
(0.951071 -4.42663e-05 0)
(0.951402 -4.40099e-05 0)
(0.951476 -3.95681e-05 0)
(0.951864 -3.24517e-05 0)
(0.951917 -2.4894e-05 0)
(0.952256 -1.66297e-05 0)
(0.95224 -1.16858e-05 0)
(0.952482 -5.82724e-06 0)
(0.952416 -4.75502e-06 0)
(0.952569 -1.03978e-06 0)
(0.952494 -2.17312e-06 0)
(0.952589 4.46291e-07 0)
(0.95252 -1.22849e-06 0)
(0.952594 4.42248e-07 0)
(0.952518 -6.17817e-07 0)
(0.952606 1.48225e-07 0)
(0.952502 -1.60309e-07 0)
(0.952621 2.00668e-09 0)
(0.952486 -4.24349e-08 0)
(0.952627 2.31465e-07 0)
(0.952484 -2.36665e-07 0)
(0.952619 6.37717e-07 0)
(0.952487 -2.57975e-07 0)
(0.952614 7.80799e-07 0)
(0.952475 4.38589e-07 0)
(0.952628 6.93675e-07 0)
(0.95244 1.63923e-06 0)
(0.952641 1.89842e-06 0)
(0.952413 2.03421e-06 0)
(0.952603 5.68382e-06 0)
(0.952402 5.46781e-06 0)
(0.952529 6.06528e-06 0)
(0.952246 3.75422e-05 0)
(0.998066 0.00291988 0)
(0.997199 0.00388868 0)