/*--------------------------------*- C++ -*----------------------------------*\
| =========                 |                                                 |
| \\      /  F ield         | OpenFOAM: The Open Source CFD Toolbox           |
|  \\    /   O peration     | Version:  v1906                                 |
|   \\  /    A nd           | Web:      www.OpenFOAM.com                      |
|    \\/     M anipulation  |                                                 |
\*---------------------------------------------------------------------------*/
FoamFile
{
    version     2.0;
    format      ascii;
    class       volScalarField;
    location    "0.1";
    object      p;
}
// * * * * * * * * * * * * * * * * * * * * * * * * * * * * * * * * * * * * * //

dimensions      [0 2 -2 0 0 0 0];


internalField   nonuniform List<scalar> 
800
(
1.80404e-08
0.00912195
0.0216453
0.0341172
0.0474407
0.0615537
0.0767583
0.0934142
0.112028
0.133308
0.158244
0.188234
0.225238
0.272167
0.333641
0.414116
0.515397
0.682394
1.06069
1.23622
-0.00619927
0.00129781
0.0129304
0.0246601
0.0372372
0.0504803
0.0646174
0.0799127
0.0967394
0.115596
0.137133
0.162173
0.19168
0.226677
0.268306
0.315504
0.357663
0.389259
0.434412
0.260722
-0.0177143
-0.0127163
-0.00258409
0.00788436
0.0191393
0.0308568
0.0431208
0.0560296
0.069718
0.0843182
0.0998979
0.116341
0.133094
0.148705
0.160241
0.16138
0.137998
0.07276
-0.0469696
-0.294751
-0.0310041
-0.0279684
-0.019281
-0.0101123
-0.000280713
0.00977524
0.019981
0.0302517
0.0404609
0.0503538
0.0594219
0.0667063
0.0704861
0.0678416
0.0542165
0.0227503
-0.0363527
-0.132885
-0.275438
-0.483034
-0.0460059
-0.044355
-0.0370278
-0.0291834
-0.020869
-0.0126149
-0.00465792
0.00272844
0.00915732
0.0140161
0.0163198
0.0145245
0.00630853
-0.0116153
-0.0435186
-0.0944718
-0.169625
-0.272267
-0.403524
-0.56339
-0.0632345
-0.0625707
-0.0565853
-0.0501369
-0.0434807
-0.0372218
-0.0317533
-0.0275298
-0.0251703
-0.0255703
-0.0300241
-0.0403372
-0.0588868
-0.0885521
-0.132427
-0.193306
-0.272858
-0.370524
-0.483222
-0.605291
-0.0829351
-0.0829315
-0.0782711
-0.0732886
-0.0684232
-0.0643341
-0.06155
-0.0606763
-0.062501
-0.0680824
-0.0788142
-0.0964384
-0.12296
-0.160416
-0.210482
-0.273973
-0.350308
-0.437114
-0.530322
-0.624576
-0.105229
-0.105597
-0.102224
-0.0987588
-0.095784
-0.0939882
-0.0939977
-0.0965154
-0.102409
-0.112757
-0.128849
-0.15211
-0.183937
-0.22542
-0.277012
-0.338211
-0.407373
-0.481744
-0.557804
-0.631803
-0.13022
-0.130725
-0.128582
-0.126665
-0.12564
-0.126195
-0.129002
-0.134791
-0.144411
-0.158827
-0.179069
-0.206114
-0.240702
-0.283118
-0.332983
-0.389147
-0.449718
-0.512275
-0.574213
-0.633159
-0.157993
-0.15846
-0.157473
-0.157111
-0.158043
-0.160925
-0.166412
-0.17519
-0.187994
-0.205576
-0.228628
-0.257658
-0.292848
-0.333918
-0.380056
-0.429936
-0.481852
-0.533935
-0.584413
-0.631855
-0.188592
-0.188904
-0.188981
-0.190145
-0.192983
-0.198078
-0.206007
-0.217342
-0.232638
-0.252383
-0.276923
-0.306364
-0.340488
-0.378707
-0.420073
-0.463359
-0.507206
-0.550283
-0.591447
-0.629859
-0.222008
-0.222095
-0.223129
-0.225751
-0.230381
-0.237484
-0.247508
-0.26086
-0.27788
-0.298789
-0.323634
-0.352228
-0.384126
-0.418631
-0.454845
-0.491764
-0.528386
-0.563816
-0.597344
-0.628494
-0.258165
-0.257992
-0.259863
-0.263841
-0.270092
-0.278927
-0.290625
-0.305401
-0.323377
-0.344543
-0.368724
-0.395562
-0.424522
-0.45493
-0.486034
-0.517074
-0.547356
-0.576306
-0.603503
-0.628689
-0.296905
-0.296463
-0.299052
-0.304255
-0.311923
-0.322172
-0.335095
-0.350711
-0.36895
-0.389625
-0.412426
-0.436921
-0.462587
-0.488848
-0.515122
-0.540873
-0.565648
-0.589097
-0.610988
-0.631195
-0.337963
-0.337262
-0.340473
-0.346778
-0.355658
-0.367009
-0.380736
-0.39668
-0.414618
-0.434251
-0.455205
-0.477051
-0.499331
-0.521592
-0.543418
-0.564458
-0.584436
-0.603163
-0.620529
-0.636495
-0.380921
-0.379983
-0.383776
-0.391119
-0.401075
-0.413297
-0.427509
-0.443405
-0.460653
-0.478898
-0.497767
-0.516883
-0.535887
-0.554454
-0.572312
-0.589251
-0.605122
-0.619837
-0.633362
-0.645709
-0.425136
-0.423975
-0.428387
-0.436812
-0.44784
-0.460867
-0.47545
-0.491159
-0.507585
-0.524345
-0.541088
-0.557506
-0.57334
-0.588391
-0.602519
-0.615642
-0.627723
-0.638766
-0.648804
-0.657888
-0.46982
-0.468655
-0.473932
-0.483627
-0.495819
-0.509662
-0.5246
-0.540146
-0.555873
-0.571425
-0.586504
-0.600871
-0.614347
-0.626809
-0.638186
-0.648456
-0.657634
-0.665767
-0.672922
-0.679186
-0.51402
-0.514298
-0.521786
-0.533731
-0.54773
-0.562718
-0.578044
-0.59317
-0.607676
-0.621262
-0.633736
-0.644996
-0.655017
-0.663833
-0.671517
-0.678171
-0.683903
-0.688828
-0.693049
-0.69666
-0.551592
-0.55544
-0.567189
-0.583364
-0.601391
-0.620138
-0.638901
-0.657068
-0.674126
-0.689687
-0.70349
-0.715394
-0.725362
-0.733443
-0.739756
-0.744461
-0.747748
-0.749813
-0.750864
-0.751107
-1.23156
-2.32906
-2.34492
-2.12928
-1.92479
-1.75726
-1.62413
-1.51783
-1.43068
-1.35716
-1.29362
-1.2375
-1.18698
-1.14066
-1.09751
-1.05671
-1.01817
-0.980727
-0.950051
-0.913205
-0.8293
-1.49607
-1.70889
-1.73432
-1.69003
-1.61631
-1.53612
-1.46008
-1.39105
-1.32901
-1.27311
-1.22232
-1.17565
-1.13224
-1.09137
-1.05244
-1.01551
-0.979417
-0.950021
-0.913792
-0.755241
-1.13181
-1.35279
-1.45848
-1.4914
-1.47887
-1.44219
-1.3953
-1.34552
-1.29636
-1.24927
-1.20469
-1.16253
-1.12249
-1.08424
-1.04742
-1.01228
-0.977641
-0.949622
-0.913934
-0.745037
-0.984073
-1.16303
-1.27616
-1.33623
-1.35674
-1.35045
-1.32783
-1.29619
-1.26018
-1.22257
-1.18485
-1.14774
-1.1115
-1.07618
-1.04168
-1.00842
-0.975346
-0.948654
-0.913614
-0.734547
-0.894836
-1.03296
-1.13734
-1.20727
-1.24663
-1.26148
-1.25839
-1.24307
-1.21998
-1.19226
-1.16204
-1.13059
-1.09867
-1.06669
-1.03484
-1.00368
-0.972355
-0.947015
-0.912833
-0.724285
-0.836602
-0.942297
-1.0324
-1.10208
-1.15018
-1.17833
-1.18972
-1.18804
-1.17675
-1.15876
-1.13629
-1.11094
-1.08379
-1.05555
-1.02668
-0.997865
-0.968494
-0.944567
-0.911469
-0.712359
-0.795564
-0.877765
-0.95332
-1.01756
-1.0677
-1.10296
-1.12414
-1.13302
-1.13184
-1.12283
-1.10798
-1.08889
-1.06681
-1.04263
-1.01702
-0.990772
-0.963555
-0.941113
-0.909307
-0.699332
-0.763579
-0.828854
-0.891818
-0.948972
-0.997487
-1.03562
-1.06276
-1.07929
-1.08628
-1.08516
-1.07744
-1.06454
-1.04764
-1.02774
-1.00563
-0.982147
-0.957262
-0.936386
-0.90604
-0.686466
-0.737396
-0.790097
-0.842621
-0.892569
-0.937606
-0.975833
-1.00601
-1.02763
-1.04084
-1.04632
-1.04499
-1.03794
-1.02618
-1.01066
-0.992194
-0.971643
-0.949238
-0.930018
-0.901234
-0.674613
-0.715655
-0.758685
-0.802572
-0.845738
-0.886436
-0.922992
-0.954008
-0.978529
-0.996102
-1.00675
-1.01088
-1.00913
-1.00227
-0.991074
-0.976318
-0.958806
-0.938988
-0.921507
-0.894285
-0.664453
-0.697809
-0.733133
-0.769773
-0.806722
-0.842747
-0.876519
-0.906751
-0.932351
-0.952538
-0.966893
-0.975355
-0.978155
-0.975729
-0.968638
-0.957519
-0.943068
-0.925881
-0.910186
-0.88441
-0.656553
-0.683714
-0.7127
-0.743146
-0.774426
-0.805706
-0.836001
-0.864249
-0.88942
-0.91062
-0.927182
-0.93871
-0.945082
-0.94641
-0.94299
-0.935263
-0.923764
-0.909153
-0.895219
-0.870633
-0.651379
-0.673409
-0.697052
-0.722115
-0.748217
-0.774815
-0.801214
-0.826604
-0.850111
-0.870883
-0.888167
-0.901379
-0.910141
-0.914286
-0.913849
-0.90904
-0.900197
-0.887956
-0.87563
-0.85182
-0.649386
-0.667075
-0.686122
-0.706434
-0.727786
-0.749833
-0.772103
-0.79401
-0.814869
-0.833951
-0.850539
-0.86399
-0.873785
-0.879564
-0.881139
-0.878497
-0.871759
-0.861471
-0.850401
-0.826776
-0.650842
-0.664799
-0.679848
-0.695942
-0.712943
-0.73063
-0.748689
-0.766706
-0.784174
-0.800516
-0.815118
-0.827378
-0.836748
-0.842771
-0.845115
-0.843583
-0.838094
-0.829063
-0.818641
-0.794417
-0.656738
-0.667408
-0.678872
-0.691107
-0.704026
-0.717484
-0.731269
-0.745091
-0.758586
-0.771318
-0.782801
-0.792528
-0.8
-0.804759
-0.806417
-0.804666
-0.799274
-0.790514
-0.779854
-0.754074
-0.665958
-0.673768
-0.682126
-0.690982
-0.700253
-0.709819
-0.719509
-0.729103
-0.738328
-0.746861
-0.754342
-0.760389
-0.764612
-0.766633
-0.766098
-0.762673
-0.756041
-0.746349
-0.734335
-0.705918
-0.684544
-0.689479
-0.694566
-0.699792
-0.705088
-0.710358
-0.71548
-0.720296
-0.724615
-0.728209
-0.73082
-0.73217
-0.731972
-0.729936
-0.725771
-0.719161
-0.70976
-0.69764
-0.682811
-0.650466
-0.699731
-0.702683
-0.705683
-0.70858
-0.711249
-0.713549
-0.715306
-0.716319
-0.716373
-0.715244
-0.712717
-0.708596
-0.702718
-0.694952
-0.685185
-0.673269
-0.659002
-0.642486
-0.622935
-0.585356
-0.750624
-0.749205
-0.746985
-0.744045
-0.740269
-0.735511
-0.729645
-0.722557
-0.714148
-0.704345
-0.693107
-0.680446
-0.666425
-0.65116
-0.634784
-0.617377
-0.598913
-0.579152
-0.555038
-0.512792
)
;

boundaryField
{
    zeroGradPlanes
    {
        type            zeroGradient;
    }
    inlet
    {
        type            zeroGradient;
    }
    plate
    {
        type            zeroGradient;
    }
    frontAndBack
    {
        type            empty;
    }
}


// ************************************************************************* //
