/*--------------------------------*- C++ -*----------------------------------*\
| =========                 |                                                 |
| \\      /  F ield         | OpenFOAM: The Open Source CFD Toolbox           |
|  \\    /   O peration     | Version:  v1906                                 |
|   \\  /    A nd           | Web:      www.OpenFOAM.com                      |
|    \\/     M anipulation  |                                                 |
\*---------------------------------------------------------------------------*/
FoamFile
{
    version     2.0;
    format      ascii;
    class       surfaceScalarField;
    location    "0.1";
    object      phi;
}
// * * * * * * * * * * * * * * * * * * * * * * * * * * * * * * * * * * * * * //

dimensions      [0 3 -1 0 0 0 0];
oriented        oriented;


internalField   nonuniform List<scalar> 
1540
(
1.97845e-05
2.49335e-06
1.9637e-05
7.82802e-06
1.94864e-05
1.25002e-05
1.93379e-05
1.64635e-05
1.9193e-05
1.97801e-05
1.90514e-05
2.25374e-05
1.8912e-05
2.48226e-05
1.87737e-05
2.67115e-05
1.86348e-05
2.82606e-05
1.84931e-05
2.95018e-05
1.83456e-05
3.04403e-05
1.81882e-05
3.10552e-05
1.80145e-05
3.13016e-05
1.7815e-05
3.11145e-05
1.75739e-05
3.04116e-05
1.72678e-05
2.90928e-05
1.68521e-05
2.70481e-05
1.6191e-05
2.41711e-05
1.49725e-05
2.02425e-05
1.45362e-05
1.30833e-05
2.15375e-05
2.61565e-06
2.13787e-05
7.98686e-06
2.12157e-05
1.26632e-05
2.1056e-05
1.66232e-05
2.09006e-05
1.99355e-05
2.07496e-05
2.26884e-05
2.06022e-05
2.497e-05
2.04576e-05
2.68561e-05
2.03148e-05
2.84034e-05
2.01727e-05
2.96439e-05
2.00301e-05
3.0583e-05
1.98855e-05
3.11998e-05
1.97377e-05
3.14494e-05
1.95852e-05
3.12669e-05
1.94266e-05
3.05703e-05
1.92583e-05
2.92611e-05
1.90783e-05
2.72281e-05
1.88865e-05
2.43629e-05
1.86121e-05
2.05169e-05
1.5416e-05
1.77323e-05
2.34496e-05
2.74057e-06
2.3281e-05
8.15542e-06
2.31074e-05
1.28369e-05
2.29381e-05
1.67924e-05
2.2775e-05
2.00986e-05
2.26186e-05
2.28449e-05
2.24689e-05
2.51197e-05
2.23262e-05
2.69987e-05
2.21916e-05
2.85381e-05
2.20665e-05
2.97689e-05
2.19542e-05
3.06953e-05
2.18597e-05
3.12943e-05
2.17909e-05
3.15182e-05
2.17599e-05
3.12979e-05
2.17822e-05
3.0548e-05
2.18724e-05
2.91708e-05
2.20312e-05
2.70694e-05
2.22159e-05
2.41781e-05
2.22525e-05
2.04803e-05
1.60608e-05
2.16077e-05
2.55347e-05
2.86436e-06
2.53595e-05
8.33061e-06
2.51779e-05
1.30185e-05
2.50023e-05
1.69681e-05
2.48357e-05
2.02651e-05
2.46798e-05
2.30008e-05
2.45361e-05
2.52634e-05
2.44069e-05
2.71279e-05
2.42963e-05
2.86486e-05
2.42105e-05
2.98547e-05
2.41588e-05
3.0747e-05
2.41543e-05
3.12988e-05
2.42145e-05
3.1458e-05
2.43602e-05
3.11523e-05
2.46104e-05
3.02978e-05
2.49694e-05
2.88118e-05
2.5403e-05
2.66358e-05
2.58079e-05
2.37731e-05
2.59698e-05
2.03185e-05
1.64972e-05
2.55335e-05
2.78077e-05
2.98329e-06
2.76304e-05
8.50791e-06
2.74454e-05
1.32034e-05
2.72685e-05
1.7145e-05
2.7105e-05
2.04287e-05
2.69579e-05
2.31478e-05
2.68312e-05
2.53901e-05
2.67304e-05
2.72288e-05
2.66636e-05
2.87154e-05
2.66427e-05
2.98756e-05
2.66835e-05
3.07063e-05
2.68059e-05
3.11764e-05
2.70322e-05
3.12316e-05
2.73822e-05
3.08022e-05
2.7863e-05
2.9817e-05
2.84519e-05
2.82229e-05
2.90765e-05
2.60113e-05
2.96027e-05
2.32469e-05
2.9838e-05
2.00832e-05
1.6762e-05
2.95732e-05
3.02849e-05
3.09364e-06
3.01114e-05
8.68141e-06
2.99297e-05
1.33852e-05
2.97589e-05
1.73157e-05
2.96072e-05
2.05803e-05
2.94803e-05
2.32748e-05
2.93848e-05
2.54856e-05
2.93302e-05
2.72833e-05
2.93296e-05
2.8716e-05
2.94001e-05
2.98051e-05
2.95627e-05
3.05436e-05
2.98403e-05
3.08989e-05
3.02529e-05
3.08191e-05
3.08096e-05
3.02455e-05
3.14962e-05
2.91303e-05
3.22617e-05
2.74573e-05
3.30097e-05
2.52633e-05
3.36046e-05
2.2652e-05
3.38979e-05
1.97899e-05
1.68843e-05
3.37756e-05
3.29841e-05
3.19172e-06
3.28218e-05
8.84373e-06
3.2652e-05
1.35549e-05
3.24975e-05
1.74702e-05
3.23694e-05
2.07084e-05
3.22765e-05
2.33677e-05
3.22291e-05
2.5533e-05
3.22409e-05
2.72715e-05
3.23294e-05
2.86275e-05
3.25158e-05
2.96187e-05
3.28229e-05
3.02365e-05
3.32713e-05
3.04506e-05
3.38719e-05
3.02184e-05
3.46172e-05
2.95002e-05
3.54708e-05
2.82768e-05
3.63613e-05
2.65669e-05
3.71857e-05
2.44389e-05
3.78266e-05
2.20111e-05
3.81802e-05
1.94363e-05
1.6876e-05
3.81885e-05
3.59243e-05
3.274e-06
3.57819e-05
8.98614e-06
3.56354e-05
1.37014e-05
3.55099e-05
1.75958e-05
3.54199e-05
2.07984e-05
3.53776e-05
2.341e-05
3.53972e-05
2.55135e-05
3.5496e-05
2.71727e-05
3.56948e-05
2.84287e-05
3.60161e-05
2.92973e-05
3.64807e-05
2.97719e-05
3.71015e-05
2.98297e-05
3.78764e-05
2.94435e-05
3.87799e-05
2.85967e-05
3.97587e-05
2.7298e-05
4.07327e-05
2.55928e-05
4.16063e-05
2.35653e-05
4.22868e-05
2.13306e-05
4.27059e-05
1.90172e-05
1.67458e-05
4.28362e-05
3.91264e-05
3.33711e-06
3.90139e-05
9.09867e-06
3.89041e-05
1.38112e-05
3.8823e-05
1.76768e-05
3.87882e-05
2.08332e-05
3.88152e-05
2.3383e-05
3.89212e-05
2.54075e-05
3.91263e-05
2.69677e-05
3.94523e-05
2.81026e-05
3.99199e-05
2.88297e-05
4.05437e-05
2.91481e-05
4.1326e-05
2.90474e-05
4.22504e-05
2.85192e-05
4.32772e-05
2.75699e-05
4.43439e-05
2.62313e-05
4.5372e-05
2.45647e-05
4.628e-05
2.26573e-05
4.69991e-05
2.06115e-05
4.7486e-05
1.85303e-05
1.65029e-05
4.77289e-05
4.26131e-05
3.37783e-06
4.25413e-05
9.17045e-06
4.24833e-05
1.38691e-05
4.24645e-05
1.76957e-05
4.25039e-05
2.07938e-05
4.26195e-05
2.32675e-05
4.28305e-05
2.51964e-05
4.31579e-05
2.66403e-05
4.36218e-05
2.76387e-05
4.42379e-05
2.82136e-05
4.50123e-05
2.83737e-05
4.59357e-05
2.8124e-05
4.69794e-05
2.74754e-05
4.80953e-05
2.64541e-05
4.92192e-05
2.51074e-05
5.02808e-05
2.35031e-05
5.12148e-05
2.17233e-05
5.19716e-05
1.98547e-05
5.25244e-05
1.79775e-05
1.61577e-05
5.28695e-05
4.64091e-05
3.39306e-06
4.63895e-05
9.19008e-06
4.63998e-05
1.38588e-05
4.64622e-05
1.76333e-05
4.65956e-05
2.06604e-05
4.68187e-05
2.30444e-05
4.71509e-05
2.48643e-05
4.76114e-05
2.61797e-05
4.82165e-05
2.70337e-05
4.89746e-05
2.74554e-05
4.98824e-05
2.74659e-05
5.09205e-05
2.7086e-05
5.20521e-05
2.63437e-05
5.32262e-05
2.528e-05
5.4383e-05
2.39506e-05
5.5463e-05
2.2423e-05
5.6416e-05
2.07703e-05
5.72072e-05
1.90635e-05
5.78201e-05
1.73646e-05
1.57227e-05
5.82551e-05
5.05414e-05
3.37979e-06
5.05856e-05
9.14594e-06
5.06812e-05
1.37632e-05
5.08442e-05
1.74703e-05
5.10908e-05
2.04138e-05
5.1438e-05
2.26972e-05
5.19032e-05
2.43991e-05
5.25017e-05
2.55812e-05
5.32437e-05
2.62917e-05
5.41299e-05
2.65692e-05
5.51482e-05
2.64476e-05
5.62721e-05
2.59622e-05
5.74614e-05
2.51544e-05
5.8667e-05
2.40744e-05
5.98367e-05
2.2781e-05
6.09225e-05
2.13372e-05
6.18869e-05
1.98059e-05
6.27059e-05
1.82445e-05
6.33694e-05
1.67011e-05
1.52125e-05
6.38797e-05
5.50395e-05
3.33502e-06
5.51589e-05
9.02659e-06
5.53564e-05
1.35656e-05
5.56386e-05
1.71881e-05
5.60156e-05
2.00368e-05
5.65001e-05
2.22126e-05
5.71049e-05
2.37943e-05
5.78397e-05
2.48464e-05
5.87077e-05
2.54237e-05
5.97023e-05
2.55746e-05
6.08051e-05
2.53448e-05
6.19859e-05
2.47814e-05
6.32053e-05
2.3935e-05
6.44191e-05
2.28606e-05
6.55843e-05
2.16158e-05
6.66636e-05
2.02578e-05
6.76297e-05
1.88398e-05
6.84662e-05
1.74081e-05
6.91672e-05
1.60001e-05
1.46439e-05
6.97358e-05
5.99357e-05
3.2555e-06
6.01417e-05
8.82063e-06
6.04572e-05
1.32501e-05
6.08752e-05
1.67701e-05
6.13966e-05
1.95154e-05
6.20269e-05
2.15823e-05
6.27722e-05
2.3049e-05
6.36355e-05
2.39832e-05
6.46132e-05
2.4446e-05
6.56932e-05
2.44946e-05
6.68534e-05
2.41846e-05
6.80634e-05
2.35713e-05
6.92875e-05
2.27108e-05
7.04888e-05
2.16594e-05
7.1633e-05
2.04716e-05
7.26925e-05
1.91983e-05
7.36477e-05
1.78845e-05
7.4488e-05
1.65678e-05
7.52102e-05
1.52779e-05
1.40365e-05
7.58176e-05
6.52658e-05
3.1371e-06
6.55705e-05
8.51599e-06
6.60194e-05
1.28012e-05
6.65878e-05
1.62017e-05
6.7264e-05
1.88392e-05
6.80437e-05
2.08026e-05
6.8925e-05
2.21678e-05
6.99039e-05
2.30043e-05
7.09714e-05
2.33785e-05
7.21117e-05
2.33543e-05
7.33023e-05
2.29941e-05
7.45153e-05
2.23583e-05
7.57207e-05
2.15054e-05
7.68892e-05
2.04908e-05
7.79954e-05
1.93654e-05
7.90195e-05
1.81743e-05
7.99483e-05
1.69557e-05
8.07751e-05
1.57409e-05
8.14991e-05
1.45539e-05
1.34121e-05
8.21235e-05
7.107e-05
2.97349e-06
7.14881e-05
8.09781e-06
7.2087e-05
1.22023e-05
7.28192e-05
1.54695e-05
7.36572e-05
1.80011e-05
7.45855e-05
1.98743e-05
7.55937e-05
2.11596e-05
7.66716e-05
2.19264e-05
7.78064e-05
2.22436e-05
7.89814e-05
2.21794e-05
8.01758e-05
2.17997e-05
8.13666e-05
2.11675e-05
8.25306e-05
2.03415e-05
8.36463e-05
1.93751e-05
8.46959e-05
1.83158e-05
8.56664e-05
1.72037e-05
8.65498e-05
1.60724e-05
8.73427e-05
1.49481e-05
8.80456e-05
1.3851e-05
1.27957e-05
8.8662e-05
7.73946e-05
2.75319e-06
7.79477e-05
7.54475e-06
7.87163e-05
1.14338e-05
7.96255e-05
1.45602e-05
8.06304e-05
1.69962e-05
8.17038e-05
1.8801e-05
8.28271e-05
2.00363e-05
8.39854e-05
2.07681e-05
8.5164e-05
2.1065e-05
8.63473e-05
2.09961e-05
8.75186e-05
2.06284e-05
8.8661e-05
2.00251e-05
8.97587e-05
1.92438e-05
9.0798e-05
1.83358e-05
9.17686e-05
1.73452e-05
9.26634e-05
1.6309e-05
9.34787e-05
1.5257e-05
9.42141e-05
1.42127e-05
9.48715e-05
1.31937e-05
1.22126e-05
9.54546e-05
8.42988e-05
2.45082e-06
8.50187e-05
6.82489e-06
8.59802e-05
1.04722e-05
8.70788e-05
1.34616e-05
8.82531e-05
1.58219e-05
8.94654e-05
1.75886e-05
9.06912e-05
1.88105e-05
9.19125e-05
1.95468e-05
9.31148e-05
1.98628e-05
9.42851e-05
1.98258e-05
9.54118e-05
1.95017e-05
9.64845e-05
1.89523e-05
9.74947e-05
1.82336e-05
9.84359e-05
1.73946e-05
9.93039e-05
1.64772e-05
0.000100097
1.55158e-05
0.000100816
1.45382e-05
0.000101463
1.3566e-05
0.000102041
1.26153e-05
1.1698e-05
0.000102555
9.18641e-05
2.00826e-06
9.27925e-05
5.89651e-06
9.39686e-05
9.29618e-06
9.52638e-05
1.21664e-05
9.66046e-05
1.44811e-05
9.79453e-05
1.62478e-05
9.92564e-05
1.74994e-05
0.000100518
1.82849e-05
0.000101718
1.86631e-05
0.000102847
1.86967e-05
0.000103901
1.84481e-05
0.000104876
1.79767e-05
0.000105773
1.73364e-05
0.000106593
1.65746e-05
0.000107339
1.5732e-05
0.000108013
1.48419e-05
0.000108619
1.39315e-05
0.000109164
1.30217e-05
0.00010965
1.21286e-05
1.12638e-05
0.000110084
0.000100135
0.0001013
0.000102696
0.000104195
0.000105716
0.000107207
0.000108631
0.000109964
0.000111191
0.000112306
0.000113307
0.000114196
0.00011498
0.000115668
0.000116268
0.000116791
0.000117244
0.000117637
0.000117979
0.000118275
7.01245e-06
6.07082e-06
4.00565e-06
3.00681e-06
2.54959e-06
1.45605e-06
1.81206e-06
7.37531e-07
1.40298e-06
4.09079e-07
1.14792e-06
2.55061e-07
9.70956e-07
1.76968e-07
8.38737e-07
1.32219e-07
7.35334e-07
1.03403e-07
6.52085e-07
8.3249e-08
5.83761e-07
6.83244e-08
5.27032e-07
5.67281e-08
4.79777e-07
4.72555e-08
4.40721e-07
3.90561e-08
4.09256e-07
3.14652e-08
3.85374e-07
2.38817e-08
3.69437e-07
1.5937e-08
3.62751e-07
6.68631e-09
3.63669e-07
-9.18452e-10
-1.38558e-08
1.44837e-05
9.31946e-06
1.11009e-05
6.38958e-06
8.41112e-06
4.14586e-06
6.48352e-06
2.66514e-06
5.14572e-06
1.74688e-06
4.20883e-06
1.19195e-06
3.53207e-06
8.53728e-07
3.02491e-06
6.39385e-07
2.63193e-06
4.96382e-07
2.31913e-06
3.96042e-07
2.06516e-06
3.22301e-07
1.85626e-06
2.6563e-07
1.68356e-06
2.1995e-07
1.54157e-06
1.81048e-07
1.42732e-06
1.45716e-07
1.3399e-06
1.11302e-07
1.28024e-06
7.55991e-08
1.25005e-06
3.6873e-08
1.24943e-06
-2.96865e-10
-4.14313e-08
1.9748e-05
1.11792e-05
1.70849e-05
9.05263e-06
1.42969e-05
6.9339e-06
1.18108e-05
5.15118e-06
9.77297e-06
3.78475e-06
8.169e-06
2.79591e-06
6.92192e-06
2.10081e-06
5.94736e-06
1.61395e-06
5.17553e-06
1.26821e-06
4.55478e-06
1.01679e-06
4.04867e-06
8.28416e-07
3.63198e-06
6.8232e-07
3.28764e-06
5.64292e-07
3.00457e-06
4.64115e-07
2.7764e-06
3.73888e-07
2.60053e-06
2.87171e-07
2.47794e-06
1.98183e-07
2.41007e-06
1.04747e-07
2.39955e-06
1.02213e-08
-7.42381e-08
2.43404e-05
1.23722e-05
2.23642e-05
1.10288e-05
1.99199e-05
9.3782e-06
1.73737e-05
7.69737e-06
1.4987e-05
6.17147e-06
1.28926e-05
4.89032e-06
1.11244e-05
3.86906e-06
9.6596e-06
3.07871e-06
8.45363e-06
2.47418e-06
7.45953e-06
2.01089e-06
6.63668e-06
1.65126e-06
5.95309e-06
1.36591e-06
5.38508e-06
1.13231e-06
4.91627e-06
9.32927e-07
4.5366e-06
7.53555e-07
4.24146e-06
5.82314e-07
4.03131e-06
4.0833e-07
3.90754e-06
2.28514e-07
3.87364e-06
4.41222e-08
-1.04804e-07
2.87734e-05
1.3172e-05
2.73346e-05
1.24676e-05
2.53458e-05
1.1367e-05
2.3018e-05
1.00252e-05
2.0583e-05
8.60643e-06
1.82287e-05
7.24466e-06
1.60731e-05
6.0247e-06
1.41691e-05
4.98272e-06
1.25239e-05
4.11932e-06
1.11198e-05
3.41496e-06
9.92916e-06
2.84194e-06
8.92349e-06
2.37158e-06
8.07828e-06
1.97752e-06
7.37474e-06
1.63646e-06
6.80046e-06
1.32783e-06
6.34934e-06
1.03344e-06
6.02135e-06
7.36323e-07
5.81826e-06
4.316e-07
5.74328e-06
1.19099e-07
-1.2292e-07
3.32508e-05
1.36968e-05
3.22261e-05
1.34924e-05
3.06819e-05
1.29112e-05
2.86996e-05
1.20075e-05
2.64274e-05
1.08786e-05
2.40339e-05
9.63822e-06
2.16679e-05
8.39063e-06
1.94372e-05
7.21343e-06
1.74045e-05
6.1521e-06
1.55957e-05
5.22375e-06
1.40126e-05
4.42505e-06
1.26438e-05
3.74036e-06
1.14734e-05
3.14791e-06
1.04862e-05
2.62362e-06
9.67113e-06
2.14294e-06
9.02252e-06
1.68205e-06
8.54096e-06
1.21789e-06
8.22959e-06
7.42969e-07
8.09111e-06
2.57581e-07
-1.14969e-07
3.78776e-05
1.40076e-05
3.71784e-05
1.41916e-05
3.60288e-05
1.40608e-05
3.44293e-05
1.36069e-05
3.24452e-05
1.28627e-05
3.01894e-05
1.1894e-05
2.77951e-05
1.0785e-05
2.53883e-05
9.62017e-06
2.30703e-05
8.47017e-06
2.09101e-05
7.38391e-06
1.89476e-05
6.38754e-06
1.72003e-05
5.4877e-06
1.56717e-05
4.67651e-06
1.43589e-05
3.9364e-06
1.32581e-05
3.24375e-06
1.23683e-05
2.57183e-06
1.16932e-05
1.89295e-06
1.12394e-05
1.19684e-06
1.101e-05
4.86988e-07
-6.31925e-08
4.27028e-05
1.4141e-05
4.2269e-05
1.46254e-05
4.14613e-05
1.48684e-05
4.02379e-05
1.48304e-05
3.86025e-05
1.44981e-05
3.66074e-05
1.38891e-05
3.43435e-05
1.30489e-05
3.19224e-05
1.20413e-05
2.94564e-05
1.09362e-05
2.70432e-05
9.79709e-06
2.47579e-05
8.67283e-06
2.26521e-05
7.59354e-06
2.07576e-05
6.57096e-06
1.90931e-05
5.60096e-06
1.76698e-05
4.66703e-06
1.64975e-05
3.74413e-06
1.55875e-05
2.80296e-06
1.49529e-05
1.83143e-06
1.46004e-05
8.39517e-07
5.50077e-08
4.77477e-05
1.41223e-05
4.7537e-05
1.48361e-05
4.70252e-05
1.53801e-05
4.61525e-05
1.57031e-05
4.48845e-05
1.57661e-05
4.32237e-05
1.55499e-05
4.12123e-05
1.50602e-05
3.89267e-05
1.43269e-05
3.64647e-05
1.33982e-05
3.39304e-05
1.23314e-05
3.1421e-05
1.11823e-05
2.90181e-05
9.9965e-06
2.67849e-05
8.80416e-06
2.47681e-05
7.6177e-06
2.30023e-05
6.43279e-06
2.15153e-05
5.23121e-06
2.03319e-05
3.98627e-06
1.94771e-05
2.68627e-06
1.89655e-05
1.35115e-06
2.67546e-07
5.30199e-05
1.39718e-05
5.29994e-05
1.48567e-05
5.27437e-05
1.56357e-05
5.21889e-05
1.6258e-05
5.12813e-05
1.66737e-05
4.99892e-05
1.6842e-05
4.83123e-05
1.67372e-05
4.62847e-05
1.63544e-05
4.39728e-05
1.571e-05
4.14658e-05
1.48384e-05
3.88637e-05
1.37844e-05
3.62654e-05
1.25947e-05
3.37608e-05
1.13088e-05
3.14261e-05
9.95242e-06
2.93242e-05
8.5347e-06
2.75077e-05
7.04774e-06
2.60224e-05
5.47156e-06
2.49109e-05
3.79778e-06
2.42025e-05
2.05954e-06
6.07535e-07
5.85185e-05
1.37084e-05
5.86597e-05
1.47155e-05
5.86241e-05
1.56713e-05
5.83513e-05
1.65308e-05
5.77809e-05
1.72441e-05
5.68623e-05
1.77606e-05
5.55638e-05
1.80357e-05
5.38815e-05
1.80368e-05
5.18435e-05
1.7748e-05
4.95092e-05
1.71727e-05
4.69626e-05
1.6331e-05
4.43028e-05
1.52545e-05
4.16335e-05
1.3978e-05
3.90547e-05
1.25312e-05
3.66577e-05
1.09317e-05
3.45239e-05
9.18157e-06
3.2726e-05
7.26946e-06
3.1331e-05
5.19281e-06
3.03903e-05
3.00025e-06
1.11226e-06
6.42372e-05
1.33509e-05
6.45133e-05
1.44394e-05
6.46634e-05
1.55212e-05
6.46343e-05
1.65599e-05
6.43675e-05
1.75109e-05
6.38046e-05
1.83234e-05
6.28957e-05
1.89447e-05
6.16078e-05
1.93247e-05
5.99336e-05
1.94222e-05
5.78965e-05
1.92098e-05
5.55513e-05
1.86763e-05
5.29798e-05
1.78261e-05
5.02831e-05
1.66747e-05
4.75724e-05
1.52419e-05
4.49604e-05
1.35437e-05
4.2556e-05
1.15859e-05
4.04616e-05
9.36385e-06
3.87736e-05
6.88082e-06
3.75726e-05
4.20128e-06
1.82065e-06
7.01676e-05
1.29192e-05
7.05516e-05
1.40553e-05
7.08528e-05
1.522e-05
7.10271e-05
1.63857e-05
7.10222e-05
1.75158e-05
7.07805e-05
1.85651e-05
7.02443e-05
1.94808e-05
6.93633e-05
2.02057e-05
6.81028e-05
2.06827e-05
6.64525e-05
2.08601e-05
6.44324e-05
2.06964e-05
6.20947e-05
2.01637e-05
5.95217e-05
1.92476e-05
5.68194e-05
1.79442e-05
5.4109e-05
1.62541e-05
5.15187e-05
1.41762e-05
4.91777e-05
1.17049e-05
4.72128e-05
8.84567e-06
4.57381e-05
5.67607e-06
2.76896e-06
7.63021e-05
1.24347e-05
7.6766e-05
1.35914e-05
7.71828e-05
1.48032e-05
7.75175e-05
1.60509e-05
7.77266e-05
1.73068e-05
7.77582e-05
1.85335e-05
7.75554e-05
1.96836e-05
7.70605e-05
2.07006e-05
7.62223e-05
2.15209e-05
7.50046e-05
2.20778e-05
7.33948e-05
2.23062e-05
7.14108e-05
2.21477e-05
6.91045e-05
2.15539e-05
6.6561e-05
2.04877e-05
6.38936e-05
1.89216e-05
6.12359e-05
1.68339e-05
5.87341e-05
1.42067e-05
5.65403e-05
1.10395e-05
5.48004e-05
7.41594e-06
3.98445e-06
8.26378e-05
1.19203e-05
8.31521e-05
1.30771e-05
8.36473e-05
1.43081e-05
8.40971e-05
1.56011e-05
8.4467e-05
1.69368e-05
8.4714e-05
1.82865e-05
8.47869e-05
1.96107e-05
8.46291e-05
2.08584e-05
8.41831e-05
2.19669e-05
8.33971e-05
2.28637e-05
8.2234e-05
2.34694e-05
8.06798e-05
2.37019e-05
7.87522e-05
2.34815e-05
7.65046e-05
2.27353e-05
7.40268e-05
2.13994e-05
7.14411e-05
1.94196e-05
6.8895e-05
1.67528e-05
6.65534e-05
1.33811e-05
6.45852e-05
9.38412e-06
5.47785e-06
8.91804e-05
1.14019e-05
8.97131e-05
1.25444e-05
9.02472e-05
1.3774e-05
9.0764e-05
1.50844e-05
9.12377e-05
1.64631e-05
9.16346e-05
1.78896e-05
9.19124e-05
1.93329e-05
9.20209e-05
2.07499e-05
9.19043e-05
2.20835e-05
9.15057e-05
2.32623e-05
9.07738e-05
2.42013e-05
8.96715e-05
2.48042e-05
8.81853e-05
2.49676e-05
8.6334e-05
2.45866e-05
8.41739e-05
2.35595e-05
8.18e-05
2.17934e-05
7.9343e-05
1.92098e-05
7.69622e-05
1.57618e-05
7.48325e-05
1.15138e-05
7.23628e-06
9.59518e-05
1.09047e-05
9.64713e-05
1.20249e-05
9.70047e-05
1.32406e-05
9.75392e-05
1.45498e-05
9.80569e-05
1.59455e-05
9.85329e-05
1.74136e-05
9.89349e-05
1.8931e-05
9.92222e-05
2.04625e-05
9.93469e-05
2.19589e-05
9.92551e-05
2.3354e-05
9.88923e-05
2.45641e-05
9.8209e-05
2.54875e-05
9.71699e-05
2.60068e-05
9.57628e-05
2.59936e-05
9.40081e-05
2.53142e-05
9.19636e-05
2.3838e-05
8.9726e-05
2.14474e-05
8.74283e-05
1.80596e-05
8.52286e-05
1.37135e-05
9.21921e-06
0.000102997
1.04636e-05
0.000103463
1.15589e-05
0.000103949
1.27542e-05
0.000104448
1.40507e-05
0.000104948
1.54454e-05
0.000105432
1.69294e-05
0.000105878
1.84857e-05
0.000106254
2.00864e-05
0.000106523
2.16898e-05
0.00010664
2.3237e-05
0.000106555
2.46491e-05
0.000106217
2.58256e-05
0.000105579
2.66442e-05
0.00010461
2.69631e-05
0.000103297
2.66273e-05
0.000101658
2.54768e-05
9.97449e-05
2.33604e-05
9.76451e-05
2.01594e-05
9.5477e-05
1.58816e-05
1.13595e-05
0.000110459
1.00896e-05
0.000110853
1.11645e-05
0.000111265
1.23426e-05
0.000111689
1.36265e-05
0.000112119
1.50155e-05
0.000112544
1.65038e-05
0.000112951
1.80785e-05
0.000113321
1.97167e-05
0.000113628
2.13827e-05
0.000113841
2.30241e-05
0.000113922
2.45687e-05
0.000113826
2.59209e-05
0.000113509
2.6961e-05
0.000112928
2.7545e-05
0.000112045
2.75096e-05
0.000110841
2.66809e-05
0.000109313
2.48885e-05
0.000107486
2.19867e-05
0.00010543
1.79377e-05
1.35837e-05
0.000118524
0.000118791
0.000119079
0.000119386
0.00011971
0.000120049
0.000120395
0.000120738
0.000121063
0.000121348
0.000121564
0.000121673
0.000121632
0.000121387
0.000120884
0.000120066
0.000118877
0.000117262
0.000115169
)
;

boundaryField
{
    zeroGradPlanes
    {
        type            calculated;
        value           nonuniform List<scalar> 
80
(
-2.37721e-06
-7.68059e-06
-1.23496e-05
-1.6315e-05
-1.96352e-05
-2.23957e-05
-2.46832e-05
-2.65732e-05
-2.81217e-05
-2.93601e-05
-3.02929e-05
-3.08978e-05
-3.11279e-05
-3.09149e-05
-3.01705e-05
-2.87867e-05
-2.66324e-05
-2.351e-05
-1.9024e-05
-1.2647e-05
3.77525e-07
1.277e-06
2.43236e-06
3.90421e-06
5.7614e-06
8.08315e-06
1.09582e-05
1.44822e-05
1.87529e-05
2.38625e-05
2.98856e-05
3.68642e-05
4.47897e-05
5.35849e-05
6.30918e-05
7.30741e-05
8.32457e-05
9.33367e-05
0.000103205
0.000112577
1.37624e-06
4.73166e-06
7.89998e-06
1.0668e-05
1.29599e-05
1.4757e-05
1.60753e-05
1.69518e-05
1.74356e-05
1.75821e-05
1.74477e-05
1.70873e-05
1.65519e-05
1.58869e-05
1.51318e-05
1.43198e-05
1.34781e-05
1.26283e-05
1.17873e-05
1.09676e-05
9.84051e-06
1.08971e-05
1.20552e-05
1.33196e-05
1.46909e-05
1.61652e-05
1.77324e-05
1.93736e-05
2.10578e-05
2.27392e-05
2.43528e-05
2.58113e-05
2.70027e-05
2.77895e-05
2.80126e-05
2.74989e-05
2.60779e-05
2.36017e-05
2.00301e-05
1.6176e-05
)
;
    }
    inlet
    {
        type            calculated;
        value           nonuniform List<scalar> 
20
(
-1.99006e-05
-2.16598e-05
-2.35745e-05
-2.56584e-05
-2.79266e-05
-3.03953e-05
-3.30822e-05
-3.60066e-05
-3.91895e-05
-4.26538e-05
-4.64243e-05
-5.05282e-05
-5.49948e-05
-5.98562e-05
-6.51474e-05
-7.09063e-05
-7.71743e-05
-8.39964e-05
-9.14216e-05
-9.95031e-05
)
;
    }
    plate
    {
        type            calculated;
        value           uniform 0;
    }
    frontAndBack
    {
        type            empty;
        value           nonuniform 0();
    }
}


// ************************************************************************* //
