/*--------------------------------*- C++ -*----------------------------------*\
| =========                 |                                                 |
| \\      /  F ield         | OpenFOAM: The Open Source CFD Toolbox           |
|  \\    /   O peration     | Version:  v1906                                 |
|   \\  /    A nd           | Web:      www.OpenFOAM.com                      |
|    \\/     M anipulation  |                                                 |
\*---------------------------------------------------------------------------*/
FoamFile
{
    version     2.0;
    format      ascii;
    class       volVectorField;
    location    "0.1";
    object      U;
}
// * * * * * * * * * * * * * * * * * * * * * * * * * * * * * * * * * * * * * //

dimensions      [0 1 -1 0 0 0 0];


internalField   nonuniform List<vector> 
800
(
(0.997893 0.0244133 0)
(0.99081 0.0847191 0)
(0.98309 0.147807 0)
(0.975569 0.212243 0)
(0.968185 0.277809 0)
(0.960988 0.344718 0)
(0.953935 0.41339 0)
(0.946971 0.484291 0)
(0.940022 0.557753 0)
(0.932995 0.633763 0)
(0.925762 0.711722 0)
(0.918151 0.790196 0)
(0.909904 0.866659 0)
(0.900643 0.937211 0)
(0.889877 0.996221 0)
(0.876589 1.0358 0)
(0.857557 1.04523 0)
(0.83075 1.0094 0)
(0.812034 0.901283 0)
(0.786007 0.66665 0)
(0.997984 0.0255107 0)
(0.991037 0.0862525 0)
(0.983371 0.149517 0)
(0.97592 0.214073 0)
(0.96863 0.279753 0)
(0.961559 0.346785 0)
(0.954674 0.415601 0)
(0.94794 0.486677 0)
(0.941313 0.560355 0)
(0.934744 0.636639 0)
(0.928181 0.714957 0)
(0.921565 0.793914 0)
(0.91483 0.871044 0)
(0.907908 0.942552 0)
(0.900813 1.00299 0)
(0.893546 1.04481 0)
(0.885235 1.058 0)
(0.876114 1.03001 0)
(0.874692 0.941359 0)
(0.866441 0.754577 0)
(0.99816 0.0269129 0)
(0.991503 0.0882669 0)
(0.983976 0.151771 0)
(0.97669 0.216474 0)
(0.969619 0.282289 0)
(0.962835 0.34946 0)
(0.956334 0.41843 0)
(0.950121 0.489676 0)
(0.944219 0.563544 0)
(0.938679 0.640037 0)
(0.933596 0.718576 0)
(0.929136 0.79775 0)
(0.925568 0.875058 0)
(0.923305 0.946638 0)
(0.922982 1.00696 0)
(0.925374 1.04841 0)
(0.930715 1.06108 0)
(0.938694 1.03341 0)
(0.948367 0.951825 0)
(0.943387 0.80004 0)
(0.998387 0.0282123 0)
(0.992167 0.090218 0)
(0.984911 0.153964 0)
(0.97792 0.218794 0)
(0.971221 0.284707 0)
(0.964917 0.351962 0)
(0.95905 0.421 0)
(0.95369 0.492286 0)
(0.948959 0.566139 0)
(0.945046 0.642514 0)
(0.942245 0.720756 0)
(0.940983 0.799331 0)
(0.941858 0.875549 0)
(0.945632 0.94529 0)
(0.953169 1.00276 0)
(0.965106 1.04032 0)
(0.98106 1.04884 0)
(0.998845 1.0191 0)
(1.01319 0.944073 0)
(1.01137 0.822547 0)
(0.998638 0.0294288 0)
(0.99299 0.0921441 0)
(0.986171 0.156144 0)
(0.979639 0.221078 0)
(0.973499 0.287037 0)
(0.967899 0.354296 0)
(0.962945 0.423278 0)
(0.958796 0.49441 0)
(0.955689 0.567945 0)
(0.953975 0.643736 0)
(0.954141 0.720976 0)
(0.956831 0.797921 0)
(0.962824 0.871622 0)
(0.972934 0.937718 0)
(0.987764 0.990387 0)
(1.00722 1.02261 0)
(1.02977 1.02706 0)
(1.0519 0.997964 0)
(1.06769 0.933455 0)
(1.06883 0.838114 0)
(0.998895 0.0305804 0)
(0.993937 0.0940689 0)
(0.987745 0.158337 0)
(0.981868 0.223343 0)
(0.976501 0.289279 0)
(0.971855 0.356426 0)
(0.968114 0.425173 0)
(0.965533 0.495876 0)
(0.964476 0.56868 0)
(0.965434 0.643282 0)
(0.969039 0.718671 0)
(0.976033 0.792865 0)
(0.987171 0.86271 0)
(1.00302 0.923817 0)
(1.02362 0.970767 0)
(1.04802 0.997737 0)
(1.07385 0.999644 0)
(1.09723 0.973746 0)
(1.11318 0.921103 0)
(1.11682 0.847381 0)
(0.999142 0.0316329 0)
(0.994973 0.095924 0)
(0.989612 0.160456 0)
(0.984607 0.225482 0)
(0.980253 0.29129 0)
(0.976825 0.358161 0)
(0.974593 0.426424 0)
(0.973909 0.496333 0)
(0.975241 0.567885 0)
(0.979178 0.640585 0)
(0.986404 0.713208 0)
(0.997611 0.783582 0)
(1.01334 0.848507 0)
(1.03373 0.903857 0)
(1.0582 0.945007 0)
(1.08517 0.9676 0)
(1.11196 0.968598 0)
(1.13508 0.947332 0)
(1.15093 0.906088 0)
(1.15681 0.849917 0)
(0.999371 0.0325438 0)
(0.996068 0.0976113 0)
(0.991736 0.162369 0)
(0.987834 0.227335 0)
(0.98474 0.292873 0)
(0.982792 0.359251 0)
(0.98234 0.426715 0)
(0.983813 0.495388 0)
(0.987745 0.565094 0)
(0.994752 0.635145 0)
(1.00546 0.704137 0)
(1.02039 0.769831 0)
(1.03976 0.829183 0)
(1.06324 0.8786 0)
(1.08978 0.91446 0)
(1.1175 0.933835 0)
(1.14387 0.935244 0)
(1.16614 0.91918 0)
(1.18191 0.888143 0)
(1.18975 0.846134 0)
(0.999576 0.0332772 0)
(0.99719 0.0990256 0)
(0.994072 0.163926 0)
(0.9915 0.228714 0)
(0.989905 0.2938 0)
(0.989675 0.359418 0)
(0.991218 0.425716 0)
(0.995007 0.492666 0)
(1.00159 0.55992 0)
(1.01152 0.626623 0)
(1.0253 0.691287 0)
(1.04318 0.751749 0)
(1.06504 0.805315 0)
(1.09019 0.849088 0)
(1.11731 0.880469 0)
(1.14457 0.897712 0)
(1.16982 0.90036 0)
(1.19105 0.889413 0)
(1.20675 0.867119 0)
(1.21618 0.836489 0)
(0.999757 0.0338006 0)
(0.998317 0.100052 0)
(0.996565 0.164957 0)
(0.995526 0.229402 0)
(0.995641 0.293812 0)
(0.997319 0.358369 0)
(1.00099 0.423104 0)
(1.00713 0.487842 0)
(1.01623 0.552085 0)
(1.02874 0.614879 0)
(1.04496 0.674753 0)
(1.06488 0.729767 0)
(1.08809 0.777703 0)
(1.11369 0.816402 0)
(1.14033 0.844162 0)
(1.16638 0.8601 0)
(1.19018 0.864349 0)
(1.21032 0.858027 0)
(1.22586 0.842987 0)
(1.23646 0.821449 0)
(0.999916 0.0340824 0)
(0.999426 0.100569 0)
(0.999153 0.165271 0)
(0.999811 0.229159 0)
(1.00179 0.292635 0)
(1.0055 0.355805 0)
(1.01133 0.418584 0)
(1.01971 0.480667 0)
(1.03105 0.541451 0)
(1.04564 0.599963 0)
(1.06356 0.654856 0)
(1.0846 0.704508 0)
(1.10815 0.747229 0)
(1.13325 0.781535 0)
(1.15869 0.806432 0)
(1.18311 0.821606 0)
(1.2053 0.827476 0)
(1.2243 0.825091 0)
(1.23955 0.815914 0)
(1.25088 0.801576 0)
(1.00006 0.0340922 0)
(1.0005 0.100449 0)
(1.00177 0.164667 0)
(1.00423 0.227732 0)
(1.00817 0.289986 0)
(1.01393 0.351447 0)
(1.02183 0.411919 0)
(1.03224 0.470998 0)
(1.04541 0.528033 0)
(1.06147 0.582109 0)
(1.08035 0.632082 0)
(1.10166 0.676697 0)
(1.12474 0.714762 0)
(1.14868 0.745356 0)
(1.17245 0.767992 0)
(1.19501 0.7827 0)
(1.21551 0.790004 0)
(1.2333 0.790812 0)
(1.24806 0.786258 0)
(1.25971 0.777543 0)
(1.00018 0.0338002 0)
(1.00153 0.0995664 0)
(1.00436 0.162944 0)
(1.00866 0.224873 0)
(1.01457 0.285606 0)
(1.0223 0.345064 0)
(1.0321 0.402953 0)
(1.0442 0.458807 0)
(1.05872 0.511986 0)
(1.07565 0.561692 0)
(1.09478 0.607022 0)
(1.11566 0.647081 0)
(1.13766 0.68111 0)
(1.15998 0.708612 0)
(1.18181 0.729442 0)
(1.2024 0.743814 0)
(1.22114 0.752265 0)
(1.23763 0.75555 0)
(1.25167 0.754546 0)
(1.26324 0.750145 0)
(1.00029 0.0331754 0)
(1.00251 0.097796 0)
(1.00687 0.159905 0)
(1.01299 0.220351 0)
(1.02079 0.279274 0)
(1.03034 0.336488 0)
(1.04177 0.391623 0)
(1.05516 0.444187 0)
(1.07052 0.493591 0)
(1.08773 0.539183 0)
(1.10652 0.580309 0)
(1.12644 0.616389 0)
(1.14692 0.647004 0)
(1.16734 0.67196 0)
(1.18708 0.691323 0)
(1.20562 0.705398 0)
(1.22255 0.714687 0)
(1.23762 0.719813 0)
(1.25071 0.721457 0)
(1.26184 0.720293 0)
(1.00041 0.0321816 0)
(1.00345 0.0950106 0)
(1.0093 0.155364 0)
(1.01716 0.213962 0)
(1.02671 0.270815 0)
(1.03785 0.325627 0)
(1.05057 0.377966 0)
(1.06483 0.427333 0)
(1.08055 0.473214 0)
(1.09754 0.51511 0)
(1.11551 0.552583 0)
(1.13405 0.585308 0)
(1.15273 0.613115 0)
(1.17107 0.636011 0)
(1.18864 0.654183 0)
(1.20508 0.667972 0)
(1.22014 0.677831 0)
(1.23366 0.684276 0)
(1.24559 0.687843 0)
(1.25595 0.689051 0)
(1.00052 0.0307712 0)
(1.0044 0.0910719 0)
(1.01169 0.149135 0)
(1.0212 0.205527 0)
(1.03232 0.260104 0)
(1.04478 0.312456 0)
(1.05844 0.362091 0)
(1.07317 0.408514 0)
(1.0888 0.451281 0)
(1.10514 0.490022 0)
(1.12191 0.524471 0)
(1.13882 0.554489 0)
(1.15551 0.58007 0)
(1.17167 0.601347 0)
(1.18701 0.618572 0)
(1.20132 0.632092 0)
(1.21444 0.642312 0)
(1.22629 0.649668 0)
(1.23686 0.654593 0)
(1.24617 0.657502 0)
(1.00067 0.0288766 0)
(1.00545 0.0858324 0)
(1.01419 0.141061 0)
(1.02525 0.194929 0)
(1.03775 0.247105 0)
(1.05126 0.297047 0)
(1.06552 0.344195 0)
(1.08034 0.388056 0)
(1.09552 0.428237 0)
(1.11087 0.464464 0)
(1.12619 0.49659 0)
(1.14124 0.524591 0)
(1.15581 0.548564 0)
(1.16971 0.568705 0)
(1.18279 0.585292 0)
(1.19491 0.598659 0)
(1.20602 0.60917 0)
(1.21609 0.617198 0)
(1.22512 0.623106 0)
(1.23316 0.627236 0)
(1.00091 0.0263206 0)
(1.0068 0.0790096 0)
(1.01704 0.130922 0)
(1.02956 0.182081 0)
(1.04323 0.231892 0)
(1.05751 0.279642 0)
(1.07208 0.324682 0)
(1.08669 0.366488 0)
(1.10116 0.404686 0)
(1.11533 0.439052 0)
(1.12905 0.469505 0)
(1.14218 0.496091 0)
(1.15462 0.518959 0)
(1.16627 0.538339 0)
(1.17707 0.554518 0)
(1.18698 0.567816 0)
(1.196 0.578568 0)
(1.20414 0.587102 0)
(1.21143 0.593736 0)
(1.21794 0.598761 0)
(1.00138 0.0223591 0)
(1.00878 0.0693902 0)
(1.02057 0.117425 0)
(1.0344 0.165761 0)
(1.04898 0.213412 0)
(1.06375 0.259448 0)
(1.07832 0.303097 0)
(1.09245 0.343769 0)
(1.10596 0.381051 0)
(1.11873 0.414704 0)
(1.1307 0.444638 0)
(1.14182 0.470896 0)
(1.15208 0.493622 0)
(1.16149 0.513037 0)
(1.17006 0.529415 0)
(1.17783 0.543055 0)
(1.18483 0.554268 0)
(1.19113 0.563362 0)
(1.19677 0.570627 0)
(1.2018 0.576334 0)
(1.00202 0.0158487 0)
(1.01106 0.0558144 0)
(1.02421 0.0994164 0)
(1.0391 0.144588 0)
(1.05447 0.189829 0)
(1.06971 0.233996 0)
(1.08445 0.276218 0)
(1.09837 0.315852 0)
(1.11129 0.352455 0)
(1.1231 0.385756 0)
(1.13375 0.415636 0)
(1.14326 0.442099 0)
(1.15168 0.465251 0)
(1.15908 0.485271 0)
(1.16555 0.502388 0)
(1.17119 0.516865 0)
(1.17608 0.528976 0)
(1.18033 0.538999 0)
(1.18401 0.547201 0)
(1.1872 0.553834 0)
(0.440939 0.249819 0)
(0.261855 0.0935382 0)
(0.155372 0.0335315 0)
(0.103574 0.0121702 0)
(0.0776421 0.00483588 0)
(0.0623889 0.00231709 0)
(0.0521982 0.00137618 0)
(0.0447834 0.000943533 0)
(0.0390673 0.000692459 0)
(0.0345027 0.000523881 0)
(0.030776 0.000402415 0)
(0.0276892 0.000311245 0)
(0.0251144 0.000240386 0)
(0.0229714 0.000183239 0)
(0.0212151 0.000135174 0)
(0.0198367 9.25841e-05 0)
(0.0188262 5.4206e-05 0)
(0.0183083 1.42179e-05 0)
(0.0180388 -8.40329e-06 0)
(0.018795 -6.07068e-05 0)
(0.742471 0.460623 0)
(0.586323 0.250185 0)
(0.440921 0.127468 0)
(0.334682 0.0651901 0)
(0.261929 0.0349873 0)
(0.21153 0.0202827 0)
(0.175664 0.0127644 0)
(0.149241 0.00858554 0)
(0.129051 0.006052 0)
(0.113144 0.00440466 0)
(0.10032 0.00327543 0)
(0.0898133 0.00246767 0)
(0.0811282 0.00186707 0)
(0.0739488 0.00140267 0)
(0.0680874 0.00102797 0)
(0.0634719 0.000711123 0)
(0.0600579 0.000432461 0)
(0.0581198 0.000173324 0)
(0.0570861 -2.16983e-05 0)
(0.0587978 -0.000247469 0)
(0.884223 0.592398 0)
(0.783733 0.406391 0)
(0.662038 0.26232 0)
(0.547353 0.164782 0)
(0.451331 0.10335 0)
(0.375041 0.0661029 0)
(0.315704 0.0436685 0)
(0.269593 0.0298778 0)
(0.23334 0.0210998 0)
(0.204384 0.0152914 0)
(0.180903 0.0113005 0)
(0.161633 0.00845891 0)
(0.145709 0.00636361 0)
(0.132554 0.00476131 0)
(0.121812 0.003486 0)
(0.113316 0.00242636 0)
(0.106973 0.00150604 0)
(0.103139 0.000688961 0)
(0.101015 1.24668e-05 0)
(0.103178 -0.000542681 0)
(0.977992 0.674099 0)
(0.9146 0.526114 0)
(0.824671 0.389112 0)
(0.72414 0.277171 0)
(0.626263 0.193227 0)
(0.538453 0.133888 0)
(0.463445 0.0933633 0)
(0.40104 0.0660236 0)
(0.349655 0.0474966 0)
(0.307376 0.0347498 0)
(0.272459 0.0257899 0)
(0.243487 0.019332 0)
(0.21939 0.0145454 0)
(0.199401 0.0108843 0)
(0.183016 0.00798178 0)
(0.169975 0.00558849 0)
(0.160135 0.00352839 0)
(0.153886 0.00173518 0)
(0.150275 0.000207513 0)
(0.152378 -0.000865725 0)
(1.04911 0.727714 0)
(1.00882 0.611946 0)
(0.945658 0.492958 0)
(0.866022 0.382915 0)
(0.778736 0.2893 0)
(0.691689 0.214681 0)
(0.610359 0.15797 0)
(0.537629 0.116168 0)
(0.474351 0.0858331 0)
(0.420156 0.0638944 0)
(0.374119 0.0479311 0)
(0.335176 0.0361604 0)
(0.302358 0.0273133 0)
(0.274883 0.0204972 0)
(0.252191 0.0150834 0)
(0.233973 0.0106311 0)
(0.220054 0.00682375 0)
(0.210841 0.00354044 0)
(0.205287 0.000727666 0)
(0.206817 -0.00112316 0)
(1.10578 0.763789 0)
(1.08056 0.673638 0)
(1.03768 0.574771 0)
(0.978376 0.475146 0)
(0.906833 0.381975 0)
(0.828658 0.300235 0)
(0.749321 0.232187 0)
(0.673112 0.177775 0)
(0.60277 0.135479 0)
(0.539638 0.103154 0)
(0.484054 0.0786182 0)
(0.435769 0.0599579 0)
(0.394276 0.0456273 0)
(0.35903 0.0344332 0)
(0.32958 0.0254771 0)
(0.305658 0.0180974 0)
(0.28712 0.0118073 0)
(0.274392 0.0064032 0)
(0.266402 0.00178155 0)
(0.266843 -0.00120425 0)
(1.15196 0.786562 0)
(1.13708 0.716841 0)
(1.10909 0.636931 0)
(1.06699 0.551271 0)
(1.01188 0.465138 0)
(0.94666 0.383489 0)
(0.875281 0.310036 0)
(0.801838 0.246822 0)
(0.729843 0.194316 0)
(0.66186 0.151831 0)
(0.599475 0.11803 0)
(0.543478 0.0913502 0)
(0.494118 0.0702776 0)
(0.45135 0.0534851 0)
(0.415038 0.0398771 0)
(0.385097 0.0285892 0)
(0.361507 0.0189614 0)
(0.344761 0.0106871 0)
(0.333834 0.00362782 0)
(0.332677 -0.000963508 0)
(1.1895 0.7985 0)
(1.182 0.745128 0)
(1.16494 0.681911 0)
(1.13663 0.610932 0)
(1.09648 0.535413 0)
(1.04534 0.459166 0)
(0.985306 0.38589 0)
(0.919354 0.318547 0)
(0.85072 0.25901 0)
(0.782393 0.208023 0)
(0.716789 0.165396 0)
(0.655639 0.130321 0)
(0.600053 0.101675 0)
(0.550678 0.0782555 0)
(0.507884 0.0589283 0)
(0.471934 0.0427107 0)
(0.443064 0.0288071 0)
(0.421907 0.0168109 0)
(0.407576 0.00657739 0)
(0.404335 -0.000211317 0)
(1.21937 0.80125 0)
(1.21724 0.761025 0)
(1.20828 0.712051 0)
(1.19072 0.654993 0)
(1.16329 0.591466 0)
(1.12556 0.523898 0)
(1.07813 0.455192 0)
(1.02258 0.388256 0)
(0.961242 0.32556 0)
(0.896801 0.268832 0)
(0.831887 0.218956 0)
(0.76881 0.176051 0)
(0.709408 0.139666 0)
(0.655056 0.108997 0)
(0.60675 0.0830904 0)
(0.565249 0.060992 0)
(0.531173 0.0418605 0)
(0.505406 0.0252277 0)
(0.487297 0.0109882 0)
(0.481533 0.00129066 0)
(1.24217 0.796038 0)
(1.24395 0.766395 0)
(1.24096 0.729349 0)
(1.23166 0.684781 0)
(1.21459 0.633217 0)
(1.1887 0.575897 0)
(1.1536 0.514696 0)
(1.10969 0.451901 0)
(1.05821 0.389879 0)
(1.00105 0.330743 0)
(0.940513 0.276088 0)
(0.878992 0.226865 0)
(0.818735 0.183386 0)
(0.76169 0.14545 0)
(0.709473 0.112495 0)
(0.663409 0.0837835 0)
(0.624611 0.0585632 0)
(0.594316 0.0363853 0)
(0.57222 0.0172502 0)
(0.563575 0.00383282 0)
(1.25833 0.783937 0)
(1.2629 0.76277 0)
(1.26425 0.735554 0)
(1.26114 0.701784 0)
(1.25222 0.661331 0)
(1.23625 0.614569 0)
(1.21229 0.562437 0)
(1.17994 0.5064 0)
(1.13946 0.448293 0)
(1.09183 0.390083 0)
(1.03865 0.333603 0)
(0.981968 0.280324 0)
(0.924011 0.231213 0)
(0.867014 0.186713 0)
(0.813049 0.146802 0)
(0.763967 0.111127 0)
(0.721409 0.0791859 0)
(0.687041 0.0506638 0)
(0.660988 0.0257556 0)
(0.649243 0.00775424 0)
(1.26825 0.765993 0)
(1.27467 0.751544 0)
(1.27907 0.732294 0)
(1.28047 0.70759 0)
(1.27772 0.676955 0)
(1.26965 0.640214 0)
(1.25515 0.597593 0)
(1.23335 0.549783 0)
(1.20383 0.497923 0)
(1.16675 0.443496 0)
(1.1229 0.38815 0)
(1.07369 0.333484 0)
(1.02096 0.280848 0)
(0.966887 0.231206 0)
(0.913709 0.185089 0)
(0.863638 0.142632 0)
(0.818777 0.103716 0)
(0.78122 0.0682924 0)
(0.751559 0.0368512 0)
(0.736694 0.0134252 0)
(1.2723 0.743295 0)
(1.27984 0.734088 0)
(1.28621 0.721172 0)
(1.2907 0.703875 0)
(1.29241 0.681579 0)
(1.29034 0.653806 0)
(1.2834 0.620313 0)
(1.27057 0.581189 0)
(1.25105 0.536907 0)
(1.22441 0.488335 0)
(1.19073 0.436665 0)
(1.15066 0.383275 0)
(1.10549 0.329561 0)
(1.05695 0.276763 0)
(1.00716 0.225833 0)
(0.958424 0.177385 0)
(0.913125 0.13175 0)
(0.873695 0.0892511 0)
(0.841146 0.0507711 0)
(0.82341 0.0212152 0)
(1.27094 0.717 0)
(1.27895 0.711806 0)
(1.28641 0.703816 0)
(1.29282 0.692411 0)
(1.29751 0.676955 0)
(1.29968 0.656838 0)
(1.29841 0.631556 0)
(1.2927 0.600791 0)
(1.28162 0.564496 0)
(1.26442 0.522951 0)
(1.24064 0.476787 0)
(1.21034 0.426942 0)
(1.17409 0.374564 0)
(1.13307 0.320873 0)
(1.08897 0.267014 0)
(1.0439 0.213948 0)
(1.00025 0.162425 0)
(0.960612 0.113182 0)
(0.926269 0.0675569 0)
(0.906239 0.0314428 0)
(1.26468 0.688393 0)
(1.27264 0.686203 0)
(1.28046 0.681953 0)
(1.28781 0.675107 0)
(1.29422 0.665072 0)
(1.2991 0.651221 0)
(1.3017 0.632937 0)
(1.30119 0.609674 0)
(1.29667 0.581031 0)
(1.28727 0.546827 0)
(1.27229 0.507165 0)
(1.2513 0.462463 0)
(1.22431 0.41344 0)
(1.19188 0.361046 0)
(1.15512 0.306362 0)
(1.11569 0.250479 0)
(1.07575 0.194437 0)
(1.03772 0.139338 0)
(1.00298 0.0869833 0)
(0.981586 0.04431 0)
(1.25417 0.658753 0)
(1.26162 0.658763 0)
(1.2692 0.657288 0)
(1.27668 0.65388 0)
(1.28375 0.648017 0)
(1.29 0.639111 0)
(1.29488 0.626528 0)
(1.29774 0.609623 0)
(1.29781 0.587797 0)
(1.29429 0.560557 0)
(1.28637 0.527593 0)
(1.27342 0.488845 0)
(1.25504 0.444547 0)
(1.23126 0.395237 0)
(1.2026 0.341716 0)
(1.17016 0.284981 0)
(1.13558 0.226164 0)
(1.10093 0.166607 0)
(1.06734 0.108506 0)
(1.04581 0.0598144 0)
(1.24016 0.629856 0)
(1.24677 0.631446 0)
(1.25363 0.631974 0)
(1.2606 0.631072 0)
(1.26748 0.628293 0)
(1.274 0.623115 0)
(1.27978 0.614939 0)
(1.28436 0.603111 0)
(1.28715 0.586947 0)
(1.28747 0.565783 0)
(1.28462 0.539036 0)
(1.2779 0.506276 0)
(1.26672 0.467304 0)
(1.25075 0.422208 0)
(1.23004 0.371398 0)
(1.20508 0.315602 0)
(1.17695 0.255851 0)
(1.14705 0.193559 0)
(1.11611 0.131184 0)
(1.09583 0.0775865 0)
(1.22362 0.602386 0)
(1.22904 0.605141 0)
(1.23473 0.60715 0)
(1.24063 0.608106 0)
(1.24662 0.607629 0)
(1.25253 0.605254 0)
(1.25813 0.600434 0)
(1.2631 0.592538 0)
(1.26704 0.580866 0)
(1.26944 0.564678 0)
(1.26973 0.543234 0)
(1.26729 0.515867 0)
(1.26153 0.482057 0)
(1.25194 0.441517 0)
(1.23825 0.394275 0)
(1.22049 0.340732 0)
(1.1991 0.281704 0)
(1.17479 0.218525 0)
(1.14763 0.153733 0)
(1.12996 0.0969059 0)
(1.20622 0.580658 0)
(1.21044 0.584173 0)
(1.21486 0.587109 0)
(1.21945 0.589202 0)
(1.22415 0.590119 0)
(1.22886 0.589453 0)
(1.23345 0.586713 0)
(1.23775 0.581318 0)
(1.24152 0.572608 0)
(1.24443 0.559848 0)
(1.24612 0.542267 0)
(1.24612 0.519101 0)
(1.24394 0.489661 0)
(1.23907 0.453427 0)
(1.23106 0.410141 0)
(1.2196 0.359906 0)
(1.20458 0.303268 0)
(1.1859 0.241331 0)
(1.16304 0.176436 0)
(1.14887 0.118633 0)
(1.18993 0.559044 0)
(1.19252 0.563475 0)
(1.19531 0.567469 0)
(1.1983 0.570791 0)
(1.20149 0.573146 0)
(1.20484 0.57417 0)
(1.2083 0.57342 0)
(1.2118 0.570368 0)
(1.2152 0.564399 0)
(1.21832 0.554813 0)
(1.2209 0.540844 0)
(1.22262 0.521689 0)
(1.22305 0.496565 0)
(1.22169 0.464786 0)
(1.21801 0.425869 0)
(1.21143 0.379646 0)
(1.20138 0.326395 0)
(1.18697 0.266996 0)
(1.16738 0.203737 0)
(1.15614 0.146837 0)
)
;

boundaryField
{
    zeroGradPlanes
    {
        type            zeroGradient;
    }
    inlet
    {
        type            fixedValue;
        value           uniform (1 0 0);
    }
    plate
    {
        type            noSlip;
    }
    frontAndBack
    {
        type            empty;
    }
}


// ************************************************************************* //
