/*--------------------------------*- C++ -*----------------------------------*\
| =========                 |                                                 |
| \\      /  F ield         | OpenFOAM: The Open Source CFD Toolbox           |
|  \\    /   O peration     | Version:  v1906                                 |
|   \\  /    A nd           | Web:      www.OpenFOAM.com                      |
|    \\/     M anipulation  |                                                 |
\*---------------------------------------------------------------------------*/
FoamFile
{
    version     2.0;
    format      ascii;
    class       volScalarField;
    location    "0.4";
    object      p;
}
// * * * * * * * * * * * * * * * * * * * * * * * * * * * * * * * * * * * * * //

dimensions      [0 2 -2 0 0 0 0];


internalField   nonuniform List<scalar> 
400
(
1.85753e-05
-24.0139
-40.7626
-50.2071
-56.1127
-60.0889
-62.7048
-64.4182
-65.6092
-66.516
-67.2631
-67.9124
-68.4955
-69.03
-69.5263
-69.9922
-70.4311
-70.8491
-71.2412
-71.6072
-21.7835
-32.9917
-43.2304
-50.1867
-55.0002
-58.5721
-61.2092
-63.1261
-64.5521
-65.6659
-66.5777
-67.3521
-68.0287
-68.6341
-69.1852
-69.6958
-70.1714
-70.6275
-71.046
-71.52
-35.144
-39.8459
-45.512
-50.485
-54.4732
-57.6869
-60.2474
-62.2388
-63.7844
-65.0131
-66.0223
-66.8767
-67.6186
-68.2779
-68.8739
-69.425
-69.936
-70.4392
-70.8923
-71.4667
-42.4087
-44.5689
-47.8465
-51.4141
-54.6461
-57.4028
-59.7088
-61.6048
-63.1512
-64.4233
-65.4894
-66.4013
-67.196
-67.9022
-68.5386
-69.128
-69.6721
-70.2181
-70.7038
-71.3249
-47.0593
-48.2251
-50.2514
-52.7767
-55.2839
-57.54
-59.512
-61.2146
-62.6718
-63.9179
-64.9913
-65.927
-66.7521
-67.4906
-68.1576
-68.7767
-69.3459
-69.916
-70.4174
-71.0215
-50.3896
-51.1103
-52.4289
-54.2085
-56.1129
-57.9265
-59.583
-61.0733
-62.3997
-63.5724
-64.6091
-65.5307
-66.3551
-67.1007
-67.778
-68.4078
-68.9853
-69.5544
-70.0497
-70.5939
-52.8929
-53.3738
-54.27
-55.544
-56.9941
-58.4504
-59.8365
-61.1268
-62.3113
-63.3879
-64.3617
-65.2432
-66.043
-66.7738
-67.442
-68.0637
-68.6328
-69.1814
-69.6561
-70.1277
-54.8342
-55.172
-55.8086
-56.7463
-57.8645
-59.0387
-60.1972
-61.308
-62.355
-63.3295
-64.2291
-65.0573
-65.8186
-66.5209
-67.1672
-67.7684
-68.3187
-68.8381
-69.2869
-69.695
-56.3799
-56.628
-57.0995
-57.8103
-58.6865
-59.6394
-60.6095
-61.5645
-62.4859
-63.3618
-64.1854
-64.9552
-65.6717
-66.3384
-66.9559
-67.5306
-68.0573
-68.5467
-68.9708
-69.3323
-57.6362
-57.8256
-58.1874
-58.741
-59.4398
-60.2211
-61.038
-61.8612
-62.6721
-63.4573
-64.2079
-64.9193
-65.5891
-66.2175
-66.8035
-67.3497
-67.8518
-68.3142
-68.7169
-69.0478
-58.6723
-58.8216
-59.1078
-59.5501
-60.1182
-60.7674
-61.4613
-62.1749
-62.8907
-63.5952
-64.2786
-64.9345
-65.5585
-66.1488
-66.703
-67.2212
-67.6995
-68.1389
-68.5236
-68.8358
-59.5352
-59.6563
-59.8889
-60.2512
-60.7226
-61.2704
-61.8665
-62.4902
-63.1256
-63.76
-64.3833
-64.9883
-65.5695
-66.1236
-66.6473
-67.1392
-67.5954
-68.0153
-68.3853
-68.6858
-60.258
-60.3588
-60.5531
-60.8572
-61.2567
-61.727
-62.2461
-62.797
-63.3657
-63.9404
-64.5114
-65.0711
-65.6135
-66.1344
-66.6299
-67.0979
-67.534
-67.9373
-68.2951
-68.588
-60.8642
-60.9505
-61.1171
-61.379
-61.7253
-62.1369
-62.5962
-63.0891
-63.6035
-64.1285
-64.655
-65.1754
-65.6837
-66.175
-66.6452
-67.0917
-67.51
-67.8993
-68.2467
-68.5343
-61.3706
-61.4467
-61.5938
-61.8254
-62.1332
-62.5011
-62.9149
-63.3627
-63.8338
-64.3185
-64.8082
-65.2956
-65.7746
-66.2404
-66.6884
-67.1161
-67.5189
-67.8961
-68.2348
-68.5181
-61.7892
-61.8585
-61.9924
-62.2036
-62.4844
-62.8212
-63.2017
-63.6156
-64.0535
-64.5066
-64.9669
-65.4273
-65.882
-66.3262
-66.7555
-67.167
-67.5565
-67.9234
-68.2547
-68.5347
-62.1281
-62.1937
-62.3202
-62.519
-62.7828
-63.0989
-63.4565
-63.8464
-64.2602
-64.6896
-65.1273
-65.5666
-66.0019
-66.4286
-66.8423
-67.2404
-67.6186
-67.9766
-68.3016
-68.5788
-62.3914
-62.4582
-62.5842
-62.7789
-63.0347
-63.3397
-63.6839
-64.0587
-64.4565
-64.8695
-65.291
-65.7146
-66.1349
-66.5477
-66.9487
-67.3357
-67.7043
-68.0547
-68.3736
-68.6469
-62.5749
-62.6513
-62.7875
-62.9892
-63.2481
-63.5529
-63.894
-64.2634
-64.6537
-65.058
-65.4696
-65.8829
-66.2927
-66.6949
-67.0858
-67.4633
-67.8238
-68.1674
-68.4812
-68.7497
-62.6599
-62.7483
-62.9006
-63.116
-63.3857
-63.6988
-64.0457
-64.4185
-64.8101
-65.2138
-65.6232
-66.033
-66.4382
-66.8352
-67.2204
-67.592
-67.947
-68.2859
-68.5989
-68.8708
)
;

boundaryField
{
    movingWall
    {
        type            zeroGradient;
    }
    bottomWall
    {
        type            zeroGradient;
    }
    leftSide
    {
        type            zeroGradient;
    }
    rightSide
    {
        type            zeroGradient;
    }
    frontAndBack
    {
        type            empty;
    }
}


// ************************************************************************* //
