/*--------------------------------*- C++ -*----------------------------------*\
| =========                 |                                                 |
| \\      /  F ield         | OpenFOAM: The Open Source CFD Toolbox           |
|  \\    /   O peration     | Version:  v1906                                 |
|   \\  /    A nd           | Web:      www.OpenFOAM.com                      |
|    \\/     M anipulation  |                                                 |
\*---------------------------------------------------------------------------*/
FoamFile
{
    version     2.0;
    format      ascii;
    class       volScalarField;
    location    "0.4";
    object      p;
}
// * * * * * * * * * * * * * * * * * * * * * * * * * * * * * * * * * * * * * //

dimensions      [0 2 -2 0 0 0 0];


internalField   nonuniform List<scalar> 
800
(
2.71026e-08
0.000226403
0.00392259
0.00961785
0.0163099
0.0237971
0.0320755
0.0411759
0.0511824
0.0622492
0.0746139
0.0886282
0.104817
0.124026
0.147601
0.176934
0.213302
0.272248
0.408776
0.501937
-0.0135867
-0.0149944
-0.0132261
-0.00924189
-0.00405172
0.00205142
0.00896615
0.0166347
0.025052
0.0342642
0.0443604
0.0554671
0.0677351
0.0813271
0.096386
0.112384
0.125969
0.133788
0.145556
0.0930134
-0.0343608
-0.036411
-0.0358965
-0.0333737
-0.0296887
-0.0251453
-0.0199008
-0.0140869
-0.00780794
-0.00115615
0.00575811
0.0127615
0.0195376
0.0254862
0.0294906
0.029283
0.0197082
-0.00775964
-0.0596224
-0.162777
-0.0572634
-0.0590106
-0.0588877
-0.0572108
-0.054594
-0.0512945
-0.0474841
-0.0433361
-0.0390254
-0.0347503
-0.0307727
-0.0274785
-0.0254762
-0.0257556
-0.0299291
-0.040645
-0.0623676
-0.101604
-0.164902
-0.264444
-0.0815974
-0.0829053
-0.0829297
-0.0818467
-0.0800837
-0.0778529
-0.0753299
-0.0727114
-0.070219
-0.0681218
-0.0667767
-0.0666875
-0.0685926
-0.0735919
-0.0833188
-0.100165
-0.127546
-0.16976
-0.230992
-0.316684
-0.106996
-0.107912
-0.10801
-0.107391
-0.10635
-0.105064
-0.103707
-0.102487
-0.101651
-0.101506
-0.102455
-0.105046
-0.110039
-0.11849
-0.131856
-0.152088
-0.181672
-0.223358
-0.279401
-0.351408
-0.133039
-0.133601
-0.133723
-0.133467
-0.13303
-0.132562
-0.132232
-0.132246
-0.132857
-0.134382
-0.137231
-0.141941
-0.149221
-0.160005
-0.175493
-0.197173
-0.226752
-0.265888
-0.315601
-0.375798
-0.159395
-0.159637
-0.159752
-0.159782
-0.159849
-0.160081
-0.160633
-0.161703
-0.163534
-0.166431
-0.17078
-0.177071
-0.185926
-0.198118
-0.214586
-0.2364
-0.264676
-0.300336
-0.343714
-0.39415
-0.185804
-0.185761
-0.185854
-0.186114
-0.186602
-0.187423
-0.188721
-0.190674
-0.193504
-0.19749
-0.202974
-0.21038
-0.220226
-0.233124
-0.249772
-0.270914
-0.297238
-0.329208
-0.366802
-0.40925
-0.212053
-0.211756
-0.211818
-0.212265
-0.213104
-0.214421
-0.216341
-0.219019
-0.222649
-0.227471
-0.233777
-0.241916
-0.252299
-0.265393
-0.281697
-0.301702
-0.325808
-0.354202
-0.386694
-0.422563
-0.237964
-0.237437
-0.237464
-0.238065
-0.239199
-0.240933
-0.243371
-0.24664
-0.2509
-0.256347
-0.263219
-0.271791
-0.282376
-0.295312
-0.310942
-0.32957
-0.351403
-0.376466
-0.4045
-0.434883
-0.263385
-0.262645
-0.262635
-0.263369
-0.26476
-0.266852
-0.269726
-0.273478
-0.278232
-0.284139
-0.291381
-0.300163
-0.310711
-0.323259
-0.338024
-0.355177
-0.374796
-0.396813
-0.420952
-0.446695
-0.288183
-0.287239
-0.287194
-0.288052
-0.28968
-0.292095
-0.29535
-0.29951
-0.304659
-0.310904
-0.318374
-0.327211
-0.337566
-0.349586
-0.363394
-0.379062
-0.396585
-0.415841
-0.436563
-0.458318
-0.312237
-0.311087
-0.311014
-0.312007
-0.313875
-0.316603
-0.320214
-0.324739
-0.330221
-0.336726
-0.344332
-0.353128
-0.363199
-0.374622
-0.387446
-0.401675
-0.417245
-0.434007
-0.451708
-0.469986
-0.335418
-0.334054
-0.333974
-0.335137
-0.337279
-0.340341
-0.344316
-0.349195
-0.354985
-0.361711
-0.369408
-0.378113
-0.387861
-0.39867
-0.410533
-0.4234
-0.437171
-0.451679
-0.466686
-0.481887
-0.35756
-0.35596
-0.355914
-0.35732
-0.359803
-0.363257
-0.367634
-0.372889
-0.378994
-0.385938
-0.393715
-0.402323
-0.411751
-0.42197
-0.432927
-0.444534
-0.456662
-0.469131
-0.481718
-0.49416
-0.37844
-0.376567
-0.376623
-0.378385
-0.38132
-0.385257
-0.390107
-0.395791
-0.402248
-0.409436
-0.417319
-0.425857
-0.435003
-0.44469
-0.454828
-0.465296
-0.475941
-0.486575
-0.496981
-0.506927
-0.397874
-0.395846
-0.396228
-0.398584
-0.402178
-0.406764
-0.412217
-0.418431
-0.425324
-0.432828
-0.440884
-0.449423
-0.458366
-0.467615
-0.477046
-0.48651
-0.495831
-0.504809
-0.513231
-0.520879
-0.415355
-0.413954
-0.415393
-0.418871
-0.423498
-0.429
-0.435251
-0.442141
-0.449582
-0.457498
-0.465811
-0.474433
-0.483258
-0.492156
-0.500974
-0.50953
-0.517619
-0.525023
-0.531518
-0.536891
-0.426643
-0.426583
-0.429516
-0.434225
-0.439812
-0.446055
-0.452877
-0.4602
-0.467951
-0.476057
-0.484437
-0.492992
-0.501597
-0.510101
-0.518322
-0.52605
-0.533052
-0.539085
-0.543905
-0.547293
-0.416363
-0.973465
-1.07003
-1.04454
-1.00635
-0.971265
-0.941593
-0.917405
-0.897748
-0.881594
-0.868174
-0.856966
-0.847632
-0.83997
-0.833876
-0.829305
-0.826251
-0.824703
-0.824224
-0.82332
-0.388081
-0.722762
-0.846237
-0.886598
-0.898166
-0.895877
-0.887417
-0.877128
-0.866882
-0.857381
-0.848881
-0.841464
-0.835155
-0.829964
-0.82591
-0.823009
-0.821289
-0.820881
-0.821479
-0.820647
-0.406986
-0.612223
-0.727985
-0.78956
-0.821955
-0.836834
-0.841713
-0.841399
-0.838554
-0.834614
-0.830381
-0.826314
-0.822691
-0.819693
-0.81745
-0.816052
-0.815595
-0.816392
-0.818276
-0.817547
-0.421653
-0.566996
-0.666553
-0.729243
-0.767903
-0.790687
-0.803282
-0.809639
-0.81228
-0.812776
-0.812123
-0.810962
-0.809716
-0.808683
-0.808082
-0.808072
-0.808823
-0.810829
-0.814063
-0.813585
-0.430693
-0.539903
-0.623655
-0.682868
-0.723583
-0.75079
-0.768461
-0.779665
-0.786597
-0.790764
-0.793205
-0.794635
-0.795562
-0.796356
-0.797304
-0.798624
-0.800549
-0.803731
-0.808284
-0.808126
-0.43791
-0.522334
-0.592536
-0.646706
-0.687046
-0.716274
-0.737017
-0.751555
-0.761687
-0.768756
-0.773749
-0.777391
-0.780219
-0.782644
-0.784995
-0.787532
-0.790537
-0.794789
-0.80053
-0.800651
-0.443915
-0.511177
-0.570273
-0.6188
-0.657123
-0.686567
-0.708765
-0.725327
-0.737648
-0.746854
-0.753827
-0.759251
-0.763654
-0.767458
-0.771013
-0.774603
-0.778538
-0.783696
-0.790412
-0.790682
-0.449322
-0.504183
-0.554146
-0.597025
-0.632431
-0.66088
-0.683318
-0.700827
-0.714441
-0.725063
-0.733444
-0.740196
-0.745814
-0.750707
-0.755224
-0.759657
-0.764329
-0.770179
-0.7776
-0.777815
-0.454725
-0.500112
-0.542439
-0.579941
-0.611978
-0.638631
-0.660394
-0.677964
-0.69208
-0.703442
-0.712664
-0.720275
-0.726716
-0.732369
-0.737568
-0.742595
-0.74777
-0.754061
-0.761874
-0.761778
-0.460433
-0.498281
-0.534126
-0.566614
-0.595084
-0.619407
-0.639806
-0.656711
-0.670637
-0.68211
-0.691622
-0.699612
-0.706465
-0.712522
-0.718087
-0.723425
-0.728833
-0.735287
-0.743151
-0.742457
-0.466589
-0.498251
-0.528515
-0.556366
-0.581222
-0.602876
-0.621403
-0.637058
-0.650199
-0.661215
-0.670493
-0.678391
-0.685236
-0.691321
-0.696918
-0.702257
-0.707611
-0.713932
-0.7215
-0.71991
-0.47327
-0.499724
-0.525112
-0.548684
-0.569967
-0.588751
-0.605038
-0.618987
-0.630844
-0.640903
-0.649467
-0.656827
-0.663252
-0.668991
-0.674276
-0.679301
-0.684301
-0.690193
-0.697126
-0.694355
-0.480523
-0.502493
-0.523558
-0.543172
-0.56097
-0.576775
-0.590569
-0.602458
-0.612626
-0.621301
-0.628725
-0.635135
-0.640753
-0.645786
-0.650427
-0.654829
-0.659187
-0.664367
-0.670356
-0.666147
-0.488391
-0.506423
-0.5236
-0.53953
-0.553947
-0.566722
-0.577847
-0.587411
-0.595565
-0.602499
-0.608414
-0.613509
-0.617971
-0.621968
-0.625657
-0.629151
-0.632602
-0.636818
-0.641593
-0.635738
-0.496927
-0.511434
-0.52506
-0.537531
-0.548667
-0.558392
-0.566725
-0.573758
-0.579637
-0.584533
-0.588627
-0.592093
-0.59509
-0.597761
-0.600227
-0.602564
-0.604882
-0.607926
-0.611282
-0.603642
-0.50617
-0.517467
-0.527802
-0.536991
-0.544928
-0.551593
-0.55704
-0.561384
-0.564778
-0.567393
-0.569406
-0.570979
-0.572255
-0.573356
-0.574377
-0.57536
-0.576373
-0.578102
-0.579916
-0.570453
-0.516176
-0.524511
-0.531759
-0.537806
-0.542614
-0.546216
-0.54871
-0.55024
-0.550984
-0.551128
-0.550854
-0.550325
-0.549679
-0.549024
-0.548435
-0.547924
-0.547526
-0.547867
-0.548105
-0.536849
-0.527551
-0.533081
-0.53735
-0.540308
-0.541975
-0.54244
-0.541849
-0.540393
-0.53828
-0.535726
-0.53293
-0.530068
-0.527281
-0.52467
-0.522298
-0.520153
-0.518248
-0.517155
-0.515803
-0.502718
-0.540961
-0.543593
-0.54472
-0.544349
-0.542562
-0.539515
-0.535418
-0.530521
-0.525087
-0.519376
-0.513624
-0.50803
-0.502747
-0.497882
-0.493486
-0.489535
-0.486033
-0.48349
-0.480632
-0.466351
-0.549073
-0.549132
-0.54744
-0.544056
-0.539125
-0.532872
-0.525581
-0.517569
-0.509165
-0.500682
-0.492397
-0.48454
-0.477277
-0.470714
-0.464887
-0.459757
-0.455347
-0.452026
-0.44829
-0.436385
)
;

boundaryField
{
    zeroGradPlanes
    {
        type            zeroGradient;
    }
    inlet
    {
        type            zeroGradient;
    }
    plate
    {
        type            zeroGradient;
    }
    frontAndBack
    {
        type            empty;
    }
}


// ************************************************************************* //
