/*--------------------------------*- C++ -*----------------------------------*\
| =========                 |                                                 |
| \\      /  F ield         | OpenFOAM: The Open Source CFD Toolbox           |
|  \\    /   O peration     | Version:  v1906                                 |
|   \\  /    A nd           | Web:      www.OpenFOAM.com                      |
|    \\/     M anipulation  |                                                 |
\*---------------------------------------------------------------------------*/
FoamFile
{
    version     2.0;
    format      ascii;
    class       surfaceScalarField;
    location    "0.4";
    object      phi;
}
// * * * * * * * * * * * * * * * * * * * * * * * * * * * * * * * * * * * * * //

dimensions      [0 3 -1 0 0 0 0];
oriented        oriented;


internalField   nonuniform List<scalar> 
1540
(
4.99057e-05
4.29867e-07
4.97341e-05
1.39012e-06
4.95242e-05
2.44381e-06
4.92866e-05
3.58341e-06
4.90273e-05
4.80374e-06
4.87495e-05
6.10553e-06
4.84545e-05
7.49465e-06
4.81422e-05
8.98169e-06
4.78115e-05
1.05821e-05
4.74601e-05
1.23168e-05
4.70842e-05
1.4212e-05
4.66783e-05
1.62992e-05
4.62335e-05
1.86129e-05
4.57353e-05
2.11838e-05
4.5159e-05
2.40226e-05
4.44623e-05
2.70823e-05
4.35568e-05
3.01943e-05
4.21667e-05
3.29553e-05
3.95315e-05
3.42854e-05
3.0829e-05
3.48804e-05
4.99268e-05
5.03056e-07
4.97758e-05
1.54112e-06
4.95786e-05
2.64105e-06
4.93514e-05
3.81057e-06
4.91028e-05
5.05237e-06
4.88371e-05
6.37118e-06
4.85567e-05
7.77502e-06
4.82627e-05
9.27573e-06
4.79553e-05
1.08896e-05
4.76344e-05
1.26377e-05
4.72998e-05
1.45466e-05
4.69513e-05
1.66476e-05
4.65897e-05
1.89744e-05
4.62174e-05
2.15562e-05
4.58393e-05
2.44007e-05
4.54637e-05
2.74579e-05
4.51104e-05
3.05476e-05
4.48316e-05
3.32341e-05
4.46093e-05
3.45076e-05
3.1986e-05
4.34524e-05
4.99492e-05
5.5384e-07
4.98254e-05
1.66489e-06
4.96538e-05
2.8127e-06
4.94507e-05
4.01362e-06
4.92264e-05
5.27672e-06
4.89871e-05
6.61052e-06
4.87369e-05
8.02517e-06
4.84791e-05
9.53354e-06
4.82166e-05
1.1152e-05
4.79532e-05
1.29011e-05
4.7694e-05
1.48057e-05
4.74477e-05
1.6894e-05
4.72279e-05
1.91942e-05
4.70572e-05
2.17269e-05
4.69712e-05
2.44867e-05
4.70229e-05
2.74063e-05
4.72812e-05
3.02893e-05
4.78082e-05
3.2707e-05
4.84962e-05
3.38197e-05
3.21197e-05
4.83625e-05
4.99641e-05
5.89701e-07
4.98684e-05
1.76065e-06
4.97291e-05
2.95198e-06
4.956e-05
4.18272e-06
4.93713e-05
5.46547e-06
4.91704e-05
6.81137e-06
4.89634e-05
8.23213e-06
4.87559e-05
9.7411e-06
4.85537e-05
1.13542e-05
4.83647e-05
1.30902e-05
4.81997e-05
1.49708e-05
4.80747e-05
1.7019e-05
4.80138e-05
1.92552e-05
4.80521e-05
2.16885e-05
4.82396e-05
2.42992e-05
4.86394e-05
2.70064e-05
4.93136e-05
2.96151e-05
5.02752e-05
3.17454e-05
5.13433e-05
3.27516e-05
3.16942e-05
5.17687e-05
4.99749e-05
6.14797e-07
4.99047e-05
1.83086e-06
4.97992e-05
3.05748e-06
4.96687e-05
4.31318e-06
4.95224e-05
5.6118e-06
4.93681e-05
6.96568e-06
4.92131e-05
8.38715e-06
4.90648e-05
9.88942e-06
4.89317e-05
1.14872e-05
4.8825e-05
1.31969e-05
4.87597e-05
1.50361e-05
4.87566e-05
1.7022e-05
4.88451e-05
1.91667e-05
4.90651e-05
2.14686e-05
4.9467e-05
2.38973e-05
5.01064e-05
2.6367e-05
5.10227e-05
2.86989e-05
5.21901e-05
3.0578e-05
5.34155e-05
3.15262e-05
3.09511e-05
5.41586e-05
4.99836e-05
6.31212e-07
4.99361e-05
1.87839e-06
4.98632e-05
3.13038e-06
4.97723e-05
4.40403e-06
4.96712e-05
5.71294e-06
4.95673e-05
7.06952e-06
4.94686e-05
8.48588e-06
4.93836e-05
9.97442e-06
4.93226e-05
1.15482e-05
4.92988e-05
1.32207e-05
4.93294e-05
1.50055e-05
4.94376e-05
1.69138e-05
4.9654e-05
1.89503e-05
5.00169e-05
2.11056e-05
5.05709e-05
2.33433e-05
5.13578e-05
2.55801e-05
5.23957e-05
2.7661e-05
5.3638e-05
2.93356e-05
5.49068e-05
3.02575e-05
3.0044e-05
5.58139e-05
4.99908e-05
6.40379e-07
4.99633e-05
1.90592e-06
4.99207e-05
3.173e-06
4.98682e-05
4.45652e-06
4.98121e-05
5.76909e-06
4.97592e-05
7.12242e-06
4.97173e-05
8.52778e-06
4.96954e-05
9.99627e-06
4.97047e-05
1.15389e-05
4.97589e-05
1.31664e-05
4.98762e-05
1.48882e-05
5.00795e-05
1.67105e-05
5.03975e-05
1.86322e-05
5.08644e-05
2.06388e-05
5.15158e-05
2.26919e-05
5.23803e-05
2.47156e-05
5.34607e-05
2.65806e-05
5.47032e-05
2.80931e-05
5.59571e-05
2.90036e-05
2.90569e-05
5.69441e-05
4.9997e-05
6.43401e-07
4.99871e-05
1.91584e-06
4.9972e-05
3.18809e-06
4.99553e-05
4.47317e-06
4.9942e-05
5.7824e-06
4.99381e-05
7.12638e-06
4.99507e-05
8.51517e-06
4.99886e-05
9.95829e-06
5.00629e-05
1.14646e-05
5.01872e-05
1.30421e-05
5.03787e-05
1.46967e-05
5.06588e-05
1.64304e-05
5.10528e-05
1.82382e-05
5.15891e-05
2.01025e-05
5.22948e-05
2.19863e-05
5.31875e-05
2.38229e-05
5.42609e-05
2.55072e-05
5.54628e-05
2.68912e-05
5.66719e-05
2.77945e-05
2.80411e-05
5.76877e-05
5.00023e-05
6.41147e-07
5.00078e-05
1.91029e-06
5.00174e-05
3.17848e-06
5.00335e-05
4.4571e-06
5.00597e-05
5.75617e-06
5.01011e-05
7.08502e-06
5.01639e-05
8.4523e-06
5.02564e-05
9.86586e-06
5.03885e-05
1.13325e-05
5.05729e-05
1.28577e-05
5.08253e-05
1.44443e-05
5.11643e-05
1.60914e-05
5.16115e-05
1.77911e-05
5.21891e-05
1.95249e-05
5.2917e-05
2.12584e-05
5.38049e-05
2.29349e-05
5.4842e-05
2.44701e-05
5.59819e-05
2.57514e-05
5.71295e-05
2.66468e-05
2.70313e-05
5.81393e-05
5.00068e-05
6.34318e-07
5.0026e-05
1.89112e-06
5.00576e-05
3.14684e-06
5.01031e-05
4.41159e-06
5.01651e-05
5.6942e-06
5.02474e-05
7.00275e-06
5.03552e-05
8.34445e-06
5.04956e-05
9.72549e-06
5.06774e-05
1.11508e-05
5.09116e-05
1.26235e-05
5.12118e-05
1.41442e-05
5.15936e-05
1.57095e-05
5.20746e-05
1.73101e-05
5.26718e-05
1.89277e-05
5.3399e-05
2.05312e-05
5.42608e-05
2.20731e-05
5.52448e-05
2.34861e-05
5.63118e-05
2.46843e-05
5.73885e-05
2.55702e-05
2.60519e-05
5.8368e-05
5.00109e-05
6.23468e-07
5.00421e-05
1.85983e-06
5.00935e-05
3.09552e-06
5.01653e-05
4.33973e-06
5.02592e-05
5.60033e-06
5.03777e-05
6.88421e-06
5.0525e-05
8.19723e-06
5.07065e-05
9.54401e-06
5.09296e-05
1.09277e-05
5.12035e-05
1.23495e-05
5.15395e-05
1.38082e-05
5.19502e-05
1.52988e-05
5.24493e-05
1.6811e-05
5.30496e-05
1.83274e-05
5.37602e-05
1.98206e-05
5.45826e-05
2.12507e-05
5.55044e-05
2.25643e-05
5.64935e-05
2.36952e-05
5.74937e-05
2.457e-05
2.51196e-05
5.8426e-05
5.00145e-05
6.08985e-07
5.00568e-05
1.81753e-06
5.0126e-05
3.02634e-06
5.02215e-05
4.24414e-06
5.03438e-05
5.47803e-06
5.04942e-05
6.73385e-06
5.06753e-05
8.01615e-06
5.08912e-05
9.32808e-06
5.11477e-05
1.06712e-05
5.14521e-05
1.20451e-05
5.18133e-05
1.3447e-05
5.22412e-05
1.48709e-05
5.27461e-05
1.63061e-05
5.33372e-05
1.77363e-05
5.40204e-05
1.91373e-05
5.47951e-05
2.0476e-05
5.56501e-05
2.17094e-05
5.65595e-05
2.27858e-05
5.74803e-05
2.36492e-05
2.42461e-05
5.83538e-05
5.00179e-05
5.9106e-07
5.00706e-05
1.76484e-06
5.01564e-05
2.94054e-06
5.02737e-05
4.12687e-06
5.04214e-05
5.33032e-06
5.05995e-05
6.55571e-06
5.08094e-05
7.80633e-06
5.10535e-05
9.0839e-06
5.13362e-05
1.03885e-05
5.16628e-05
1.17185e-05
5.20401e-05
1.30697e-05
5.24755e-05
1.44355e-05
5.29765e-05
1.58051e-05
5.35496e-05
1.71633e-05
5.41982e-05
1.84888e-05
5.49205e-05
1.97537e-05
5.57067e-05
2.09231e-05
5.65363e-05
2.19562e-05
5.73765e-05
2.2809e-05
2.34393e-05
5.81833e-05
5.00214e-05
5.69612e-07
5.00845e-05
1.70176e-06
5.01864e-05
2.83863e-06
5.0324e-05
3.98929e-06
5.04947e-05
5.15963e-06
5.06971e-05
6.35334e-06
5.0931e-05
7.57239e-06
5.11978e-05
8.8171e-06
5.15001e-05
1.00862e-05
5.18417e-05
1.13768e-05
5.22275e-05
1.2684e-05
5.26626e-05
1.40003e-05
5.31525e-05
1.53153e-05
5.37012e-05
1.66146e-05
5.43104e-05
1.78795e-05
5.49779e-05
1.90862e-05
5.56952e-05
2.02058e-05
5.64461e-05
2.12053e-05
5.72057e-05
2.20494e-05
2.2704e-05
5.7941e-05
5.00254e-05
5.44182e-07
5.00996e-05
1.62757e-06
5.02179e-05
2.72039e-06
5.03749e-05
3.83221e-06
5.05666e-05
4.96796e-06
5.079e-05
6.12994e-06
5.10438e-05
7.31858e-06
5.13281e-05
8.53279e-06
5.16443e-05
9.77006e-06
5.19948e-05
1.10264e-05
5.23827e-05
1.22961e-05
5.28116e-05
1.35714e-05
5.32849e-05
1.4842e-05
5.3805e-05
1.60945e-05
5.43723e-05
1.73121e-05
5.49843e-05
1.84742e-05
5.56338e-05
1.95563e-05
5.63081e-05
2.0531e-05
5.69882e-05
2.13693e-05
2.20427e-05
5.76495e-05
5.00304e-05
5.138e-07
5.01173e-05
1.54068e-06
5.02527e-05
2.58498e-06
5.04288e-05
3.65611e-06
5.06395e-05
4.75723e-06
5.08808e-05
5.88864e-06
5.11504e-05
7.04899e-06
5.14475e-05
8.2357e-06
5.17725e-05
9.44506e-06
5.21267e-05
1.06722e-05
5.25118e-05
1.19109e-05
5.29301e-05
1.31531e-05
5.33832e-05
1.43888e-05
5.38724e-05
1.56054e-05
5.43971e-05
1.67875e-05
5.49545e-05
1.79168e-05
5.55387e-05
1.89722e-05
5.61395e-05
1.99302e-05
5.67428e-05
2.07661e-05
2.14555e-05
5.733e-05
5.00371e-05
4.76663e-07
5.01392e-05
1.43862e-06
5.02928e-05
2.43135e-06
5.04871e-05
3.46183e-06
5.07145e-05
4.52984e-06
5.09702e-05
5.63295e-06
5.12514e-05
6.76777e-06
5.15568e-05
7.93024e-06
5.18862e-05
9.11567e-06
5.22399e-05
1.03185e-05
5.26188e-05
1.15321e-05
5.30236e-05
1.27484e-05
5.34549e-05
1.39574e-05
5.39128e-05
1.51475e-05
5.43961e-05
1.63042e-05
5.49018e-05
1.74111e-05
5.54248e-05
1.84492e-05
5.59571e-05
1.93978e-05
5.6488e-05
2.02352e-05
2.09396e-05
5.70039e-05
5.00477e-05
4.28941e-07
5.01677e-05
1.3186e-06
5.03395e-05
2.25957e-06
5.05496e-05
3.25174e-06
5.07899e-05
4.28954e-06
5.10557e-05
5.36721e-06
5.13441e-05
6.47932e-06
5.16538e-05
7.62059e-06
5.19839e-05
8.78553e-06
5.23342e-05
9.96817e-06
5.27047e-05
1.11616e-05
5.30951e-05
1.23579e-05
5.35051e-05
1.35474e-05
5.39338e-05
1.47188e-05
5.43792e-05
1.58587e-05
5.48385e-05
1.69518e-05
5.5307e-05
1.79806e-05
5.57785e-05
1.89263e-05
5.62447e-05
1.9769e-05
2.04887e-05
5.66955e-05
5.0065e-05
3.63921e-07
5.02036e-05
1.18001e-06
5.039e-05
2.0732e-06
5.06106e-05
3.03109e-06
5.08584e-05
4.04182e-06
5.11291e-05
5.09647e-06
5.14205e-05
6.18798e-06
5.17309e-05
7.31017e-06
5.20593e-05
8.45709e-06
5.2405e-05
9.62252e-06
5.2767e-05
1.07996e-05
5.31446e-05
1.19804e-05
5.35364e-05
1.31556e-05
5.39409e-05
1.43144e-05
5.43556e-05
1.5444e-05
5.47775e-05
1.65299e-05
5.52023e-05
1.75558e-05
5.56248e-05
1.85038e-05
5.60386e-05
1.93552e-05
2.00911e-05
5.64363e-05
5.00813e-05
5.02346e-05
5.04279e-05
5.06521e-05
5.09018e-05
5.11735e-05
5.1465e-05
5.17746e-05
5.21011e-05
5.24432e-05
5.27997e-05
5.31692e-05
5.35499e-05
5.39398e-05
5.43361e-05
5.47356e-05
5.51342e-05
5.55272e-05
5.59093e-05
5.62745e-05
1.92302e-05
1.56502e-05
1.18735e-05
7.35665e-06
8.32167e-06
3.55184e-06
6.4542e-06
1.86747e-06
5.36971e-06
1.08449e-06
4.67558e-06
6.94128e-07
4.19266e-06
4.82925e-07
3.83518e-06
3.57478e-07
3.55952e-06
2.7566e-07
3.34176e-06
2.17762e-07
3.16774e-06
1.74017e-07
3.0285e-06
1.3924e-07
2.91798e-06
1.10523e-07
2.83174e-06
8.62386e-08
2.76613e-06
6.56127e-08
2.71758e-06
4.85492e-08
2.6819e-06
3.56773e-08
2.65359e-06
2.83078e-08
2.62773e-06
2.58644e-08
2.09635e-08
3.61537e-05
2.29488e-05
2.88805e-05
1.46299e-05
2.33167e-05
9.11563e-06
1.93592e-05
5.82489e-06
1.65637e-05
3.88005e-06
1.45496e-05
2.70817e-06
1.30562e-05
1.97638e-06
1.19167e-05
1.49696e-06
1.10264e-05
1.16599e-06
1.03185e-05
9.25645e-07
9.74966e-06
7.4286e-07
9.29075e-06
5.98147e-07
8.92151e-06
4.79758e-07
8.62707e-06
3.80682e-07
8.39558e-06
2.97102e-07
8.21652e-06
2.27614e-07
8.07933e-06
1.72866e-07
7.97271e-06
1.34928e-07
7.88557e-06
1.12997e-07
9.77363e-08
4.49239e-05
2.63874e-05
3.9834e-05
1.97199e-05
3.47396e-05
1.421e-05
3.03523e-05
1.02122e-05
2.67947e-05
7.43757e-06
2.39697e-05
5.53321e-06
2.17307e-05
4.21534e-06
1.99444e-05
3.28327e-06
1.85059e-05
2.60446e-06
1.73378e-05
2.09383e-06
1.63837e-05
1.69693e-06
1.56031e-05
1.37878e-06
1.4966e-05
1.11684e-06
1.44498e-05
8.96873e-07
1.40364e-05
7.10528e-07
1.371e-05
5.53999e-07
1.34556e-05
4.27208e-07
1.32578e-05
3.32746e-07
1.30997e-05
2.71137e-07
2.34923e-07
5.01974e-05
2.79588e-05
4.69449e-05
2.29724e-05
4.29831e-05
1.81719e-05
3.90342e-05
1.4161e-05
3.54512e-05
1.10206e-05
3.23494e-05
8.63497e-06
2.9725e-05
6.83979e-06
2.75258e-05
5.48246e-06
2.56885e-05
4.44175e-06
2.41541e-05
3.62819e-06
2.28731e-05
2.97796e-06
2.18055e-05
2.44639e-06
2.09197e-05
2.00265e-06
2.01904e-05
1.62617e-06
1.95967e-05
1.30418e-06
1.91205e-05
1.03025e-06
1.87443e-05
8.03413e-07
1.84499e-05
6.27149e-07
1.82159e-05
5.05093e-07
4.35314e-07
5.35952e-05
2.85221e-05
5.16611e-05
2.49065e-05
4.88362e-05
2.09968e-05
4.56421e-05
1.73551e-05
4.24455e-05
1.42172e-05
3.9454e-05
1.16265e-05
3.67607e-05
9.53307e-06
3.439e-05
7.85311e-06
3.23309e-05
6.5009e-06
3.05571e-05
5.40201e-06
2.90384e-05
4.49666e-06
2.77457e-05
3.73901e-06
2.66533e-05
3.0951e-06
2.57385e-05
2.54091e-06
2.49819e-05
2.0608e-06
2.43656e-05
1.64653e-06
2.38723e-05
1.2968e-06
2.34826e-05
1.01677e-06
2.31727e-05
8.15012e-07
6.99036e-07
5.58384e-05
2.84976e-05
5.48157e-05
2.59292e-05
5.2942e-05
2.28705e-05
5.05398e-05
1.97574e-05
4.79041e-05
1.68529e-05
4.52513e-05
1.42793e-05
4.27178e-05
1.20665e-05
4.03779e-05
1.0193e-05
3.82638e-05
8.61494e-06
3.63829e-05
7.28296e-06
3.47286e-05
6.15094e-06
3.32882e-05
5.17943e-06
3.20465e-05
4.33681e-06
3.09881e-05
3.5993e-06
3.00981e-05
2.95076e-06
2.9362e-05
2.38267e-06
2.87643e-05
1.89445e-06
2.82871e-05
1.49404e-06
2.79053e-05
1.19678e-06
1.02331e-06
5.73212e-05
2.81205e-05
5.69155e-05
2.6335e-05
5.57767e-05
2.40092e-05
5.40815e-05
2.14526e-05
5.20367e-05
1.88976e-05
4.98264e-05
1.64897e-05
4.75909e-05
1.4302e-05
4.54265e-05
1.23575e-05
4.33928e-05
1.06486e-05
4.15229e-05
9.15283e-06
3.98321e-05
7.84176e-06
3.83244e-05
6.68712e-06
3.69974e-05
5.66378e-06
3.58452e-05
4.75157e-06
3.48596e-05
3.93631e-06
3.40313e-05
3.21096e-06
3.33488e-05
2.57696e-06
3.27966e-05
2.04625e-06
3.23509e-05
1.64249e-06
1.40276e-06
5.82743e-05
2.75338e-05
5.82794e-05
2.63299e-05
5.76841e-05
2.46045e-05
5.6571e-05
2.25658e-05
5.50708e-05
2.03978e-05
5.33223e-05
1.82382e-05
5.14484e-05
1.61759e-05
4.95468e-05
1.42592e-05
4.76886e-05
1.25068e-05
4.59226e-05
1.09188e-05
4.42799e-05
9.48439e-06
4.2779e-05
8.18802e-06
4.14294e-05
7.01339e-06
4.02348e-05
5.9462e-06
3.91949e-05
4.97624e-06
3.83063e-05
4.09951e-06
3.75625e-05
3.32072e-06
3.69519e-05
2.65688e-06
3.64532e-05
2.14125e-06
1.82981e-06
5.88435e-05
2.68296e-05
5.91162e-05
2.60572e-05
5.89104e-05
2.48103e-05
5.82527e-05
2.32235e-05
5.72174e-05
2.14331e-05
5.59002e-05
1.95553e-05
5.43984e-05
1.76778e-05
5.27985e-05
1.5859e-05
5.11719e-05
1.41334e-05
4.95735e-05
1.25172e-05
4.80436e-05
1.10143e-05
4.66106e-05
9.62103e-06
4.52935e-05
8.33046e-06
4.41046e-05
7.13518e-06
4.30507e-05
6.03015e-06
4.21346e-05
5.01553e-06
4.13551e-05
4.10029e-06
4.07047e-05
3.30726e-06
4.01658e-05
2.68015e-06
2.29529e-06
5.91283e-05
2.60693e-05
5.95681e-05
2.56174e-05
5.96325e-05
2.47459e-05
5.93175e-05
2.35386e-05
5.86588e-05
2.20917e-05
5.77173e-05
2.04969e-05
5.6564e-05
1.88311e-05
5.52696e-05
1.71534e-05
5.3898e-05
1.5505e-05
5.25034e-05
1.39119e-05
5.11291e-05
1.23885e-05
4.98091e-05
1.09411e-05
4.85686e-05
9.57095e-06
4.74261e-05
8.27768e-06
4.63945e-05
7.06179e-06
4.54818e-05
5.92819e-06
4.46915e-05
4.89061e-06
4.40206e-05
3.97818e-06
4.34555e-05
3.24526e-06
2.78899e-06
5.92003e-05
2.5295e-05
5.9736e-05
2.50817e-05
5.998e-05
2.45018e-05
5.9913e-05
2.36056e-05
5.95468e-05
2.2458e-05
5.8916e-05
2.11276e-05
5.80692e-05
1.96779e-05
5.70604e-05
1.81622e-05
5.59427e-05
1.66226e-05
5.4765e-05
1.50896e-05
5.35695e-05
1.3584e-05
5.23913e-05
1.21192e-05
5.12588e-05
1.07034e-05
5.01943e-05
9.34218e-06
4.92148e-05
8.04136e-06
4.83322e-05
6.81071e-06
4.7554e-05
5.66887e-06
4.68809e-05
4.65129e-06
4.63034e-05
3.8227e-06
3.3004e-06
5.91126e-05
2.45362e-05
5.96935e-05
2.45008e-05
6.00488e-05
2.41465e-05
6.01535e-05
2.35009e-05
6.0005e-05
2.26065e-05
5.96203e-05
2.15123e-05
5.90302e-05
2.02679e-05
5.82736e-05
1.89189e-05
5.73922e-05
1.7504e-05
5.64274e-05
1.60545e-05
5.54171e-05
1.45943e-05
5.43949e-05
1.31414e-05
5.33896e-05
1.17087e-05
5.24249e-05
1.03069e-05
5.15198e-05
8.94649e-06
5.06889e-05
7.64163e-06
4.9942e-05
6.41572e-06
4.92831e-05
5.31022e-06
4.87063e-05
4.39947e-06
3.81926e-06
5.89063e-05
2.38132e-05
5.94958e-05
2.39113e-05
5.99116e-05
2.37307e-05
6.01275e-05
2.3285e-05
6.01338e-05
2.26002e-05
5.9936e-05
2.17101e-05
5.95519e-05
2.0652e-05
5.9008e-05
1.94628e-05
5.83356e-05
1.81764e-05
5.75678e-05
1.68223e-05
5.6737e-05
1.54251e-05
5.58733e-05
1.40051e-05
5.50036e-05
1.25784e-05
5.41512e-05
1.11594e-05
5.33354e-05
9.76229e-06
5.25717e-05
8.40529e-06
5.18714e-05
7.11602e-06
5.12403e-05
5.94135e-06
5.06757e-05
4.96412e-06
4.33613e-06
5.8614e-05
2.31403e-05
5.91864e-05
2.33389e-05
5.96248e-05
2.32922e-05
5.99053e-05
2.30045e-05
6.0015e-05
2.24905e-05
5.99526e-05
2.17725e-05
5.97272e-05
2.08774e-05
5.93557e-05
1.98343e-05
5.88606e-05
1.86715e-05
5.82672e-05
1.74156e-05
5.76019e-05
1.60905e-05
5.68903e-05
1.47167e-05
5.61561e-05
1.33126e-05
5.54206e-05
1.18949e-05
5.47021e-05
1.04808e-05
5.40157e-05
9.0917e-06
5.33728e-05
7.75897e-06
5.27799e-05
6.53415e-06
5.22369e-05
5.50721e-06
4.84286e-06
5.82635e-05
2.25263e-05
5.88007e-05
2.28017e-05
5.92346e-05
2.28583e-05
5.95443e-05
2.26948e-05
5.97167e-05
2.23181e-05
5.9747e-05
2.17421e-05
5.96387e-05
2.09858e-05
5.94018e-05
2.00712e-05
5.90517e-05
1.90216e-05
5.86072e-05
1.78602e-05
5.80886e-05
1.6609e-05
5.75168e-05
1.52885e-05
5.69116e-05
1.39178e-05
5.62914e-05
1.25151e-05
5.56723e-05
1.10998e-05
5.5068e-05
9.69603e-06
5.44889e-05
8.33807e-06
5.39416e-05
7.0814e-06
5.34272e-05
6.02159e-06
5.3329e-06
5.78799e-05
2.19764e-05
5.83705e-05
2.2311e-05
5.87811e-05
2.24478e-05
5.90944e-05
2.23815e-05
5.92985e-05
2.2114e-05
5.93874e-05
2.16532e-05
5.93613e-05
2.10119e-05
5.92256e-05
2.02069e-05
5.89904e-05
1.92568e-05
5.86689e-05
1.81817e-05
5.82762e-05
1.70017e-05
5.78284e-05
1.57363e-05
5.73413e-05
1.44049e-05
5.68298e-05
1.30266e-05
5.63073e-05
1.16223e-05
5.57852e-05
1.02181e-05
5.52724e-05
8.85091e-06
5.47746e-05
7.57914e-06
5.42936e-05
6.50257e-06
5.80181e-06
5.74891e-05
2.14911e-05
5.79273e-05
2.18728e-05
5.8303e-05
2.20721e-05
5.86027e-05
2.20819e-05
5.88163e-05
2.19004e-05
5.89381e-05
2.15314e-05
5.89665e-05
2.09836e-05
5.89041e-05
2.02693e-05
5.8757e-05
1.94039e-05
5.8534e-05
1.84046e-05
5.82459e-05
1.72897e-05
5.79044e-05
1.60779e-05
5.75212e-05
1.4788e-05
5.71079e-05
1.34399e-05
5.66747e-05
1.20555e-05
5.62306e-05
1.06623e-05
5.57824e-05
9.29909e-06
5.53347e-05
8.02688e-06
5.4889e-05
6.94825e-06
6.24711e-06
5.71199e-05
2.10668e-05
5.75059e-05
2.14868e-05
5.78422e-05
2.17358e-05
5.81189e-05
2.18052e-05
5.83282e-05
2.16911e-05
5.84649e-05
2.13947e-05
5.8527e-05
2.09215e-05
5.85153e-05
2.0281e-05
5.84332e-05
1.9486e-05
5.82863e-05
1.85516e-05
5.80816e-05
1.74945e-05
5.7827e-05
1.63325e-05
5.75309e-05
1.50842e-05
5.72013e-05
1.37695e-05
5.68458e-05
1.2411e-05
5.64709e-05
1.10372e-05
5.60814e-05
9.68856e-06
5.56806e-05
8.42771e-06
5.52688e-05
7.36004e-06
6.66741e-06
5.68097e-05
2.06933e-05
5.71506e-05
2.11459e-05
5.74508e-05
2.14356e-05
5.77032e-05
2.15528e-05
5.79019e-05
2.14924e-05
5.80429e-05
2.12536e-05
5.81242e-05
2.08402e-05
5.81455e-05
2.02597e-05
5.81084e-05
1.95231e-05
5.8016e-05
1.86439e-05
5.78727e-05
1.76378e-05
5.76834e-05
1.65218e-05
5.74536e-05
1.5314e-05
5.71887e-05
1.40343e-05
5.6894e-05
1.27057e-05
5.6574e-05
1.13572e-05
5.62321e-05
1.00304e-05
5.58713e-05
8.78859e-06
5.54926e-05
7.73871e-06
7.06792e-06
5.66164e-05
5.69288e-05
5.72056e-05
5.74414e-05
5.76316e-05
5.77729e-05
5.78635e-05
5.79025e-05
5.78906e-05
5.78294e-05
5.77216e-05
5.75703e-05
5.73793e-05
5.71524e-05
5.68933e-05
5.66058e-05
5.62937e-05
5.59596e-05
5.56048e-05
)
;

boundaryField
{
    zeroGradPlanes
    {
        type            calculated;
        value           nonuniform List<scalar> 
80
(
-3.35567e-07
-1.21854e-06
-2.23387e-06
-3.34579e-06
-4.54445e-06
-5.82775e-06
-7.19965e-06
-8.66942e-06
-1.02514e-05
-1.19654e-05
-1.38361e-05
-1.58932e-05
-1.8168e-05
-2.06856e-05
-2.34463e-05
-2.63856e-05
-2.92887e-05
-3.15652e-05
-3.16502e-05
-2.61779e-05
2.60677e-06
7.8088e-06
1.29625e-05
1.80155e-05
2.2909e-05
2.7581e-05
3.19715e-05
3.60261e-05
3.97003e-05
4.29618e-05
4.5792e-05
4.81874e-05
5.01588e-05
5.17301e-05
5.29372e-05
5.38247e-05
5.44437e-05
5.48485e-05
5.50921e-05
5.52064e-05
2.82602e-07
1.02669e-06
1.87992e-06
2.80688e-06
3.79213e-06
4.82475e-06
5.8965e-06
7.00055e-06
8.13063e-06
9.28042e-06
1.04431e-05
1.16109e-05
1.27748e-05
1.39245e-05
1.50477e-05
1.61305e-05
1.71572e-05
1.81108e-05
1.89731e-05
1.97259e-05
2.03514e-05
2.08335e-05
2.11588e-05
2.13171e-05
2.13022e-05
2.11123e-05
2.07497e-05
2.02207e-05
1.9535e-05
1.87051e-05
1.77457e-05
1.6673e-05
1.5505e-05
1.42613e-05
1.29648e-05
1.16447e-05
1.03425e-05
9.12269e-06
8.09342e-06
7.46635e-06
)
;
    }
    inlet
    {
        type            calculated;
        value           nonuniform List<scalar> 
20
(
-5e-05
-5e-05
-5e-05
-5e-05
-5e-05
-5e-05
-5e-05
-5e-05
-5e-05
-5e-05
-5e-05
-5e-05
-5e-05
-5e-05
-5e-05
-5e-05
-5e-05
-5e-05
-5e-05
-5e-05
)
;
    }
    plate
    {
        type            calculated;
        value           uniform 0;
    }
    frontAndBack
    {
        type            empty;
        value           nonuniform 0();
    }
}


// ************************************************************************* //
