/*--------------------------------*- C++ -*----------------------------------*\
| =========                 |                                                 |
| \\      /  F ield         | OpenFOAM: The Open Source CFD Toolbox           |
|  \\    /   O peration     | Version:  v1906                                 |
|   \\  /    A nd           | Web:      www.OpenFOAM.com                      |
|    \\/     M anipulation  |                                                 |
\*---------------------------------------------------------------------------*/
FoamFile
{
    version     2.0;
    format      ascii;
    class       volVectorField;
    location    "0.4";
    object      U;
}
// * * * * * * * * * * * * * * * * * * * * * * * * * * * * * * * * * * * * * //

dimensions      [0 1 -1 0 0 0 0];


internalField   nonuniform List<vector> 
800
(
(0.999279 0.00749998 0)
(0.996679 0.0256309 0)
(0.992808 0.0461042 0)
(0.988242 0.06849 0)
(0.983237 0.0925934 0)
(0.977854 0.11838 0)
(0.972122 0.145938 0)
(0.96605 0.175459 0)
(0.959626 0.20724 0)
(0.952815 0.241683 0)
(0.945558 0.279299 0)
(0.937765 0.320699 0)
(0.929293 0.366543 0)
(0.919929 0.417392 0)
(0.909361 0.47336 0)
(0.896885 0.533328 0)
(0.880243 0.593408 0)
(0.857186 0.643442 0)
(0.840108 0.656014 0)
(0.824762 0.558776 0)
(0.999486 0.00925022 0)
(0.997323 0.0291226 0)
(0.99377 0.0505934 0)
(0.989436 0.0736323 0)
(0.984638 0.0982156 0)
(0.979479 0.124394 0)
(0.974009 0.152304 0)
(0.968261 0.182168 0)
(0.962245 0.214303 0)
(0.955962 0.249131 0)
(0.949407 0.287184 0)
(0.942575 0.329096 0)
(0.935468 0.37556 0)
(0.928113 0.427191 0)
(0.920616 0.484198 0)
(0.913164 0.545645 0)
(0.905593 0.608091 0)
(0.898214 0.663073 0)
(0.899314 0.689125 0)
(0.907788 0.629979 0)
(0.999679 0.0106314 0)
(0.998033 0.0322089 0)
(0.99502 0.0547237 0)
(0.991185 0.0784429 0)
(0.986864 0.103504 0)
(0.982202 0.130047 0)
(0.977289 0.158257 0)
(0.972194 0.188383 0)
(0.966976 0.220756 0)
(0.961696 0.255797 0)
(0.956441 0.294029 0)
(0.95134 0.336059 0)
(0.946605 0.382524 0)
(0.942581 0.433946 0)
(0.939848 0.490384 0)
(0.939324 0.550688 0)
(0.942124 0.611118 0)
(0.949529 0.663117 0)
(0.964482 0.688564 0)
(0.980973 0.649398 0)
(0.999792 0.011489 0)
(0.998574 0.0343936 0)
(0.996181 0.0578299 0)
(0.993021 0.0821704 0)
(0.989395 0.107647 0)
(0.985466 0.134465 0)
(0.981361 0.162847 0)
(0.977188 0.193058 0)
(0.97306 0.225426 0)
(0.969106 0.260349 0)
(0.965507 0.298297 0)
(0.96252 0.33979 0)
(0.960532 0.385325 0)
(0.960119 0.435203 0)
(0.96213 0.489174 0)
(0.967732 0.545735 0)
(0.978251 0.600909 0)
(0.9947 0.646539 0)
(1.01707 0.668017 0)
(1.038 0.641927 0)
(0.999862 0.0120816 0)
(0.998992 0.0360209 0)
(0.997207 0.0602486 0)
(0.994788 0.0851452 0)
(0.991975 0.110984 0)
(0.988932 0.138005 0)
(0.985804 0.166455 0)
(0.982733 0.196603 0)
(0.979874 0.228757 0)
(0.977418 0.263272 0)
(0.975615 0.300546 0)
(0.974817 0.34098 0)
(0.975515 0.384897 0)
(0.978392 0.432367 0)
(0.984361 0.482868 0)
(0.994535 0.534698 0)
(1.00999 0.584061 0)
(1.03118 0.623972 0)
(1.05677 0.643392 0)
(1.08009 0.627834 0)
(0.999914 0.0124904 0)
(0.999335 0.0371867 0)
(0.998113 0.062025 0)
(0.996431 0.0873585 0)
(0.994472 0.113466 0)
(0.992385 0.140599 0)
(0.99032 0.169007 0)
(0.988438 0.198948 0)
(0.986924 0.230702 0)
(0.986005 0.26457 0)
(0.985979 0.300864 0)
(0.987244 0.339864 0)
(0.990328 0.381732 0)
(0.995922 0.426347 0)
(1.00488 0.473019 0)
(1.01811 0.520031 0)
(1.03637 0.564021 0)
(1.0596 0.599365 0)
(1.08602 0.617998 0)
(1.11016 0.610658 0)
(0.999954 0.0127422 0)
(0.999625 0.0379279 0)
(0.998911 0.0631704 0)
(0.997928 0.0887848 0)
(0.996809 0.115035 0)
(0.995684 0.142165 0)
(0.994696 0.170412 0)
(0.994011 0.200011 0)
(0.993826 0.231206 0)
(0.994386 0.264238 0)
(0.996005 0.299336 0)
(0.999088 0.336669 0)
(1.00415 0.376267 0)
(1.01183 0.417877 0)
(1.02284 0.460735 0)
(1.0379 0.503236 0)
(1.05742 0.542536 0)
(1.08107 0.574248 0)
(1.10705 0.592558 0)
(1.13107 0.591369 0)
(0.999987 0.0128606 0)
(0.999872 0.0382926 0)
(0.999613 0.0637344 0)
(0.999273 0.0894622 0)
(0.998947 0.115716 0)
(0.998743 0.142719 0)
(0.998791 0.170688 0)
(0.99925 0.199828 0)
(1.00031 0.23034 0)
(1.00223 0.262409 0)
(1.00529 0.296185 0)
(1.0099 0.331748 0)
(1.0165 0.369027 0)
(1.02567 0.407694 0)
(1.03796 0.446981 0)
(1.0539 0.48546 0)
(1.07366 0.5208 0)
(1.09679 0.549634 0)
(1.12168 0.567776 0)
(1.14505 0.571082 0)
(1.00002 0.0128653 0)
(1.00009 0.0383274 0)
(1.00023 0.0637761 0)
(1.00047 0.0894522 0)
(1.00087 0.115569 0)
(1.00152 0.142325 0)
(1.00253 0.169909 0)
(1.00404 0.198495 0)
(1.00623 0.228238 0)
(1.00933 0.259272 0)
(1.01361 0.291681 0)
(1.01943 0.325473 0)
(1.02718 0.360511 0)
(1.03732 0.396431 0)
(1.05029 0.43251 0)
(1.06643 0.467516 0)
(1.08579 0.499574 0)
(1.10788 0.526122 0)
(1.13134 0.544118 0)
(1.15372 0.550654 0)
(1.00004 0.0127721 0)
(1.00027 0.0380727 0)
(1.00077 0.0633518 0)
(1.00154 0.0888211 0)
(1.0026 0.114668 0)
(1.00402 0.141067 0)
(1.00589 0.168175 0)
(1.00833 0.196134 0)
(1.01151 0.225059 0)
(1.01561 0.255035 0)
(1.02088 0.286094 0)
(1.02762 0.31819 0)
(1.03616 0.351145 0)
(1.04686 0.384588 0)
(1.06004 0.417863 0)
(1.07594 0.449931 0)
(1.09451 0.479295 0)
(1.11528 0.504004 0)
(1.13715 0.521825 0)
(1.1583 0.530649 0)
(1.00006 0.0125934 0)
(1.00043 0.0375621 0)
(1.00125 0.0625122 0)
(1.00248 0.0876336 0)
(1.00413 0.113092 0)
(1.00624 0.139036 0)
(1.00888 0.165597 0)
(1.01213 0.192882 0)
(1.01614 0.220971 0)
(1.02106 0.249906 0)
(1.0271 0.279677 0)
(1.0345 0.3102 0)
(1.04353 0.341276 0)
(1.05446 0.372543 0)
(1.06754 0.403418 0)
(1.08288 0.433033 0)
(1.10042 0.460199 0)
(1.11974 0.48342 0)
(1.13996 0.501028 0)
(1.15972 0.511456 0)
(1.00008 0.012339 0)
(1.00058 0.0368222 0)
(1.00169 0.0612998 0)
(1.00334 0.0859478 0)
(1.00552 0.110914 0)
(1.00824 0.136327 0)
(1.01154 0.162288 0)
(1.01548 0.188877 0)
(1.02018 0.216137 0)
(1.02574 0.244079 0)
(1.03235 0.272657 0)
(1.04019 0.301761 0)
(1.04947 0.331181 0)
(1.06039 0.360576 0)
(1.07311 0.389433 0)
(1.08771 0.417029 0)
(1.10409 0.442412 0)
(1.1219 0.464426 0)
(1.14045 0.481803 0)
(1.15871 0.493347 0)
(1.00009 0.0120146 0)
(1.00072 0.0358708 0)
(1.0021 0.0597459 0)
(1.00415 0.0838112 0)
(1.0068 0.108202 0)
(1.01006 0.133024 0)
(1.01393 0.158356 0)
(1.01845 0.184247 0)
(1.0237 0.210712 0)
(1.02976 0.23773 0)
(1.03676 0.265232 0)
(1.04485 0.293086 0)
(1.05418 0.32108 0)
(1.06489 0.348897 0)
(1.0771 0.376085 0)
(1.09083 0.40204 0)
(1.10598 0.425993 0)
(1.12227 0.447036 0)
(1.13916 0.464187 0)
(1.15587 0.476511 0)
(1.00011 0.0116217 0)
(1.00087 0.0347143 0)
(1.00251 0.0578679 0)
(1.00493 0.0812577 0)
(1.00803 0.105007 0)
(1.01176 0.129203 0)
(1.01612 0.153897 0)
(1.02112 0.179111 0)
(1.0268 0.204833 0)
(1.03321 0.231015 0)
(1.04046 0.257567 0)
(1.04864 0.284346 0)
(1.05787 0.31114 0)
(1.06824 0.337653 0)
(1.07981 0.363488 0)
(1.0926 0.388132 0)
(1.10651 0.410958 0)
(1.12129 0.431236 0)
(1.13654 0.44819 0)
(1.15166 0.461071 0)
(1.00013 0.0111549 0)
(1.00103 0.033345 0)
(1.00295 0.0556673 0)
(1.00574 0.0783064 0)
(1.00925 0.101373 0)
(1.01341 0.124928 0)
(1.01819 0.148997 0)
(1.02357 0.173574 0)
(1.02956 0.198619 0)
(1.03621 0.224064 0)
(1.04358 0.2498 0)
(1.05173 0.275676 0)
(1.06074 0.301483 0)
(1.07066 0.326946 0)
(1.08154 0.351709 0)
(1.09335 0.375334 0)
(1.10601 0.397294 0)
(1.11933 0.416994 0)
(1.13298 0.433799 0)
(1.14653 0.447096 0)
(1.00016 0.0106017 0)
(1.00122 0.0317427 0)
(1.00346 0.053135 0)
(1.00662 0.0749712 0)
(1.01052 0.0973378 0)
(1.01506 0.120264 0)
(1.02017 0.143742 0)
(1.02584 0.167736 0)
(1.03206 0.192183 0)
(1.03884 0.216993 0)
(1.04622 0.242047 0)
(1.05425 0.267185 0)
(1.06295 0.292204 0)
(1.07237 0.316845 0)
(1.08252 0.340789 0)
(1.09336 0.363648 0)
(1.10481 0.384973 0)
(1.11672 0.404261 0)
(1.12884 0.420983 0)
(1.14085 0.434618 0)
(1.00021 0.00994151 0)
(1.00148 0.0298825 0)
(1.00407 0.0502721 0)
(1.00761 0.0712887 0)
(1.01186 0.092973 0)
(1.01671 0.115308 0)
(1.02209 0.138247 0)
(1.02796 0.161725 0)
(1.03431 0.185656 0)
(1.04114 0.209934 0)
(1.04846 0.234431 0)
(1.05629 0.258984 0)
(1.06465 0.283395 0)
(1.07354 0.307418 0)
(1.08296 0.33076 0)
(1.09287 0.353075 0)
(1.10319 0.373965 0)
(1.11379 0.392996 0)
(1.12448 0.409706 0)
(1.13502 0.423643 0)
(1.00029 0.00910092 0)
(1.00186 0.0276724 0)
(1.00482 0.0470234 0)
(1.00871 0.0672438 0)
(1.01326 0.0882908 0)
(1.01833 0.110087 0)
(1.02389 0.132544 0)
(1.02987 0.155568 0)
(1.03627 0.179056 0)
(1.04308 0.202892 0)
(1.05029 0.22694 0)
(1.0579 0.251038 0)
(1.0659 0.274992 0)
(1.07429 0.298569 0)
(1.08305 0.321495 0)
(1.09211 0.343453 0)
(1.10142 0.364082 0)
(1.11085 0.382991 0)
(1.12027 0.399766 0)
(1.1295 0.413996 0)
(1.00045 0.00785495 0)
(1.0024 0.0248022 0)
(1.0057 0.043072 0)
(1.00984 0.0625123 0)
(1.01456 0.0829491 0)
(1.01976 0.104232 0)
(1.02539 0.126233 0)
(1.03142 0.148836 0)
(1.03781 0.171923 0)
(1.04456 0.195373 0)
(1.05164 0.219047 0)
(1.05904 0.242785 0)
(1.06674 0.266401 0)
(1.07471 0.28967 0)
(1.08291 0.312336 0)
(1.0913 0.3341 0)
(1.09979 0.354628 0)
(1.10829 0.373555 0)
(1.11669 0.390498 0)
(1.12484 0.405074 0)
(1.00061 0.00634371 0)
(1.00289 0.0217166 0)
(1.0064 0.0390255 0)
(1.01065 0.0577954 0)
(1.01542 0.0777159 0)
(1.02065 0.0985717 0)
(1.02629 0.120201 0)
(1.03231 0.142469 0)
(1.03867 0.165251 0)
(1.04536 0.18842 0)
(1.05236 0.211838 0)
(1.05962 0.235348 0)
(1.06713 0.258768 0)
(1.07485 0.281886 0)
(1.08272 0.304455 0)
(1.0907 0.326192 0)
(1.0987 0.346779 0)
(1.10664 0.36587 0)
(1.11443 0.3831 0)
(1.12193 0.398099 0)
(0.467578 0.220943 0)
(0.296665 0.0865048 0)
(0.19514 0.0345571 0)
(0.143186 0.0148232 0)
(0.115772 0.00707769 0)
(0.0991329 0.00386431 0)
(0.0878938 0.00242486 0)
(0.0797649 0.00170256 0)
(0.0735911 0.00128416 0)
(0.0687513 0.00100497 0)
(0.064893 0.000796574 0)
(0.0617999 0.000628465 0)
(0.0593301 0.000485972 0)
(0.0573838 0.00036219 0)
(0.0558836 0.000255216 0)
(0.0547612 0.00016762 0)
(0.0539415 0.000107873 0)
(0.0533128 8.98505e-05 0)
(0.0527562 0.000104787 0)
(0.0524303 8.1429e-05 0)
(0.794463 0.409408 0)
(0.647638 0.228928 0)
(0.51558 0.125109 0)
(0.420481 0.0714247 0)
(0.354823 0.0436101 0)
(0.308205 0.028632 0)
(0.274052 0.0200953 0)
(0.248312 0.0148732 0)
(0.2284 0.0114306 0)
(0.212671 0.00899759 0)
(0.200074 0.00717227 0)
(0.189914 0.00573395 0)
(0.181717 0.00455676 0)
(0.175145 0.00356925 0)
(0.169939 0.00273568 0)
(0.165886 0.00204755 0)
(0.162783 0.0015216 0)
(0.160371 0.0011923 0)
(0.158384 0.00103898 0)
(0.157197 0.000889023 0)
(0.942284 0.505333 0)
(0.851516 0.351595 0)
(0.744048 0.236474 0)
(0.647097 0.160061 0)
(0.567722 0.110978 0)
(0.504538 0.0794793 0)
(0.45455 0.0588849 0)
(0.414845 0.0449689 0)
(0.383021 0.0351789 0)
(0.357267 0.0279959 0)
(0.336272 0.0225077 0)
(0.319093 0.0181574 0)
(0.305041 0.0146009 0)
(0.293606 0.0116285 0)
(0.284391 0.00912262 0)
(0.27707 0.0070344 0)
(0.271349 0.00537155 0)
(0.266866 0.00417937 0)
(0.263215 0.00344645 0)
(0.260996 0.00298526 0)
(1.0284 0.550078 0)
(0.977374 0.434252 0)
(0.900981 0.329536 0)
(0.819144 0.247004 0)
(0.742735 0.185748 0)
(0.675668 0.141434 0)
(0.618556 0.1095 0)
(0.5706 0.0862254 0)
(0.530529 0.0689082 0)
(0.497073 0.0556883 0)
(0.469133 0.0453131 0)
(0.445818 0.0369457 0)
(0.426421 0.0300311 0)
(0.410381 0.0242102 0)
(0.397245 0.0192672 0)
(0.386636 0.0150977 0)
(0.378215 0.0116902 0)
(0.371555 0.00910163 0)
(0.366132 0.00736427 0)
(0.362779 0.00636079 0)
(1.08418 0.56851 0)
(1.05834 0.484104 0)
(1.00816 0.396917 0)
(0.945664 0.319204 0)
(0.880333 0.254954 0)
(0.817736 0.203911 0)
(0.760615 0.164078 0)
(0.70995 0.133078 0)
(0.665746 0.108773 0)
(0.627554 0.0894503 0)
(0.594773 0.0738132 0)
(0.566793 0.0609133 0)
(0.54306 0.0500745 0)
(0.52309 0.0408325 0)
(0.506466 0.0328923 0)
(0.492826 0.0261011 0)
(0.481841 0.0204317 0)
(0.473057 0.0159651 0)
(0.465869 0.0128139 0)
(0.461352 0.0110109 0)
(1.12136 0.572413 0)
(1.11142 0.511961 0)
(1.0811 0.44277 0)
(1.03672 0.374879 0)
(0.985043 0.313661 0)
(0.931286 0.261114 0)
(0.878908 0.217234 0)
(0.829916 0.181048 0)
(0.785282 0.151269 0)
(0.745332 0.126637 0)
(0.710028 0.106058 0)
(0.67915 0.0886483 0)
(0.652403 0.0737275 0)
(0.629476 0.0607986 0)
(0.610063 0.0495308 0)
(0.593879 0.039748 0)
(0.580649 0.0314248 0)
(0.569939 0.0246863 0)
(0.561099 0.0197623 0)
(0.55546 0.0169136 0)
(1.14614 0.567528 0)
(1.14625 0.525067 0)
(1.13022 0.471878 0)
(1.10087 0.415283 0)
(1.06247 0.360368 0)
(1.0191 0.31001 0)
(0.974054 0.265404 0)
(0.929669 0.226664 0)
(0.88746 0.193326 0)
(0.848307 0.164682 0)
(0.812653 0.13998 0)
(0.780664 0.118528 0)
(0.752339 0.0997416 0)
(0.727581 0.0831675 0)
(0.706244 0.068491 0)
(0.68816 0.0555475 0)
(0.673148 0.044339 0)
(0.660826 0.0350585 0)
(0.650538 0.0280881 0)
(0.643886 0.0239882 0)
(1.16214 0.557328 0)
(1.16855 0.528254 0)
(1.16249 0.488383 0)
(1.14485 0.442731 0)
(1.11802 0.395475 0)
(1.08487 0.349542 0)
(1.04809 0.30666 0)
(1.00991 0.267629 0)
(0.972014 0.23262 0)
(0.935575 0.201435 0)
(0.901366 0.173694 0)
(0.869862 0.14896 0)
(0.841325 0.126811 0)
(0.815874 0.106894 0)
(0.793536 0.0889578 0)
(0.774279 0.0728847 0)
(0.758032 0.0587307 0)
(0.744494 0.0467804 0)
(0.733034 0.0375978 0)
(0.725532 0.0321019 0)
(1.17165 0.544046 0)
(1.1819 0.524898 0)
(1.18264 0.495731 0)
(1.17374 0.459841 0)
(1.15637 0.420395 0)
(1.13235 0.379961 0)
(1.1037 0.340364 0)
(1.07228 0.302736 0)
(1.0397 0.267658 0)
(1.00721 0.235325 0)
(0.975759 0.20569 0)
(0.946013 0.178569 0)
(0.918435 0.153731 0)
(0.893327 0.130959 0)
(0.870873 0.110094 0)
(0.851174 0.091096 0)
(0.834273 0.0740965 0)
(0.819956 0.0594913 0)
(0.807643 0.0480473 0)
(0.799498 0.0410831 0)
(1.17629 0.529148 0)
(1.18872 0.517363 0)
(1.19392 0.496636 0)
(1.19134 0.469055 0)
(1.18135 0.436896 0)
(1.16501 0.402232 0)
(1.14371 0.366737 0)
(1.11889 0.331623 0)
(1.09193 0.297685 0)
(1.06402 0.265373 0)
(1.03614 0.234893 0)
(1.00905 0.206284 0)
(0.983336 0.179498 0)
(0.959428 0.154458 0)
(0.937633 0.13112 0)
(0.918165 0.109532 0)
(0.901169 0.0899206 0)
(0.886514 0.0728039 0)
(0.873686 0.0591627 0)
(0.865128 0.050734 0)
(1.17723 0.513627 0)
(1.19069 0.507315 0)
(1.19869 0.493167 0)
(1.20048 0.472455 0)
(1.19603 0.446747 0)
(1.18585 0.417624 0)
(1.17081 0.386497 0)
(1.15198 0.354511 0)
(1.13046 0.32252 0)
(1.10728 0.291112 0)
(1.08335 0.260659 0)
(1.05945 0.231371 0)
(1.03622 0.203354 0)
(1.01415 0.176663 0)
(0.993636 0.151365 0)
(0.974971 0.127608 0)
(0.958378 0.105716 0)
(0.943798 0.0863357 0)
(0.930786 0.0706606 0)
(0.922052 0.0608435 0)
(1.17538 0.498175 0)
(1.18907 0.495939 0)
(1.19862 0.486884 0)
(1.2033 0.471743 0)
(1.20283 0.451552 0)
(1.19737 0.427465 0)
(1.18745 0.400608 0)
(1.17378 0.371976 0)
(1.15719 0.342389 0)
(1.13852 0.31248 0)
(1.11859 0.282714 0)
(1.09811 0.253412 0)
(1.0777 0.224798 0)
(1.0579 0.19704 0)
(1.03911 0.170306 0)
(1.02169 0.144837 0)
(1.00592 0.121056 0)
(0.991772 0.0997345 0)
(0.97888 0.0822678 0)
(0.970198 0.0712005 0)
(1.17142 0.483274 0)
(1.18478 0.484085 0)
(1.19501 0.478958 0)
(1.20143 0.468276 0)
(1.20366 0.45269 0)
(1.20169 0.433013 0)
(1.19576 0.4101 0)
(1.18633 0.384776 0)
(1.174 0.357772 0)
(1.15944 0.329704 0)
(1.14329 0.301069 0)
(1.1262 0.272255 0)
(1.10874 0.243565 0)
(1.09141 0.215253 0)
(1.07464 0.187571 0)
(1.05878 0.160847 0)
(1.04414 0.135593 0)
(1.03072 0.112697 0)
(1.01821 0.0937365 0)
(1.00978 0.0816051 0)
(1.16594 0.469259 0)
(1.17858 0.47236 0)
(1.18884 0.470259 0)
(1.19613 0.463111 0)
(1.20007 0.451303 0)
(1.20053 0.435379 0)
(1.19758 0.415971 0)
(1.19151 0.39373 0)
(1.18273 0.369282 0)
(1.17171 0.343189 0)
(1.15899 0.315943 0)
(1.1451 0.287956 0)
(1.13053 0.259583 0)
(1.11573 0.231136 0)
(1.1011 0.202937 0)
(1.08699 0.175383 0)
(1.07369 0.149068 0)
(1.06121 0.124981 0)
(1.04929 0.104856 0)
(1.0413 0.0918799 0)
(1.15943 0.456354 0)
(1.17109 0.461192 0)
(1.18092 0.461422 0)
(1.18845 0.457059 0)
(1.19332 0.448305 0)
(1.19535 0.435508 0)
(1.19454 0.419117 0)
(1.19102 0.399634 0)
(1.18506 0.377574 0)
(1.17702 0.353436 0)
(1.16728 0.327678 0)
(1.15627 0.300718 0)
(1.14441 0.27293 0)
(1.13206 0.24467 0)
(1.11959 0.216309 0)
(1.1073 0.188303 0)
(1.09546 0.161312 0)
(1.08407 0.136411 0)
(1.07289 0.115463 0)
(1.06547 0.10188 0)
(1.15233 0.444703 0)
(1.16285 0.450874 0)
(1.17196 0.452906 0)
(1.17928 0.450727 0)
(1.1845 0.444413 0)
(1.18744 0.434171 0)
(1.18806 0.42031 0)
(1.1864 0.40321 0)
(1.18263 0.383289 0)
(1.17699 0.360974 0)
(1.16977 0.336688 0)
(1.16129 0.310834 0)
(1.15186 0.283795 0)
(1.1418 0.255949 0)
(1.13139 0.227705 0)
(1.1209 0.199562 0)
(1.11055 0.172239 0)
(1.10031 0.146878 0)
(1.08997 0.125439 0)
(1.08321 0.111488 0)
(1.14512 0.434389 0)
(1.15444 0.4416 0)
(1.16265 0.445031 0)
(1.16947 0.444554 0)
(1.17464 0.440163 0)
(1.17802 0.431968 0)
(1.17952 0.420175 0)
(1.17915 0.405068 0)
(1.17702 0.386984 0)
(1.17327 0.366293 0)
(1.1681 0.343376 0)
(1.16174 0.318616 0)
(1.15444 0.292396 0)
(1.14642 0.265108 0)
(1.1379 0.237182 0)
(1.12909 0.209157 0)
(1.12017 0.181792 0)
(1.11107 0.156284 0)
(1.1016 0.134661 0)
(1.09553 0.120576 0)
(1.13831 0.425297 0)
(1.14648 0.433338 0)
(1.15376 0.437863 0)
(1.15993 0.438711 0)
(1.16483 0.435823 0)
(1.16831 0.429242 0)
(1.1703 0.419103 0)
(1.17079 0.405621 0)
(1.16983 0.389073 0)
(1.16751 0.36978 0)
(1.16395 0.348089 0)
(1.15932 0.324364 0)
(1.15377 0.298981 0)
(1.14747 0.272338 0)
(1.14058 0.244883 0)
(1.13325 0.217177 0)
(1.12562 0.190016 0)
(1.11757 0.164637 0)
(1.10894 0.14312 0)
(1.10355 0.129178 0)
(1.1326 0.416916 0)
(1.13979 0.425701 0)
(1.14624 0.431166 0)
(1.1518 0.433128 0)
(1.15634 0.431494 0)
(1.15975 0.42626 0)
(1.16198 0.417516 0)
(1.163 0.405427 0)
(1.16283 0.390226 0)
(1.16152 0.372196 0)
(1.15914 0.351657 0)
(1.15578 0.328956 0)
(1.15156 0.304461 0)
(1.14659 0.278569 0)
(1.14096 0.251736 0)
(1.1348 0.224542 0)
(1.12819 0.197806 0)
(1.12101 0.172794 0)
(1.11314 0.151637 0)
(1.10836 0.138178 0)
(1.12904 0.41051 0)
(1.13562 0.420013 0)
(1.14154 0.426337 0)
(1.1467 0.429282 0)
(1.15098 0.42873 0)
(1.15431 0.424647 0)
(1.15664 0.417088 0)
(1.15793 0.406183 0)
(1.1582 0.392134 0)
(1.15745 0.375196 0)
(1.15574 0.355667 0)
(1.15313 0.33388 0)
(1.14969 0.310193 0)
(1.14549 0.285003 0)
(1.1406 0.258771 0)
(1.13513 0.232085 0)
(1.12913 0.205781 0)
(1.12249 0.181146 0)
(1.11525 0.160342 0)
(1.11088 0.147184 0)
)
;

boundaryField
{
    zeroGradPlanes
    {
        type            zeroGradient;
    }
    inlet
    {
        type            fixedValue;
        value           uniform (1 0 0);
    }
    plate
    {
        type            noSlip;
    }
    frontAndBack
    {
        type            empty;
    }
}


// ************************************************************************* //
