/*--------------------------------*- C++ -*----------------------------------*\
| =========                 |                                                 |
| \\      /  F ield         | OpenFOAM: The Open Source CFD Toolbox           |
|  \\    /   O peration     | Version:  v1906                                 |
|   \\  /    A nd           | Web:      www.OpenFOAM.com                      |
|    \\/     M anipulation  |                                                 |
\*---------------------------------------------------------------------------*/
FoamFile
{
    version     2.0;
    format      ascii;
    class       volScalarField;
    location    "1";
    object      p;
}
// * * * * * * * * * * * * * * * * * * * * * * * * * * * * * * * * * * * * * //

dimensions      [0 2 -2 0 0 0 0];


internalField   nonuniform List<scalar> 
4800
(
6.7498e-11
9.39266e-06
-4.82878e-05
-0.000143803
-0.00022438
-0.000296507
-0.000354617
-0.000425564
-0.000448136
-0.000454521
-0.000424794
-0.000390286
-0.000324243
-0.000182032
1.61012e-05
0.000268268
0.000622198
0.00113931
0.0017992
0.00251563
8.11037e-06
6.03734e-06
-4.5589e-05
-0.000146464
-0.000221273
-0.000299059
-0.00034996
-0.000426714
-0.000442956
-0.000455528
-0.000416849
-0.000391614
-0.000318205
-0.000185101
2.10348e-05
0.000261201
0.000624892
0.00108466
0.00158308
0.00211755
1.05882e-05
3.72202e-06
-4.44335e-05
-0.000147617
-0.00021969
-0.000299961
-0.000347525
-0.000426327
-0.000441759
-0.000452987
-0.000415609
-0.000389794
-0.000316739
-0.000185025
1.74075e-05
0.000245635
0.000569271
0.000961031
0.00137155
0.0018286
1.86159e-05
7.61724e-07
-4.28171e-05
-0.000148464
-0.000218978
-0.000299428
-0.000347106
-0.000423335
-0.000443709
-0.00044597
-0.00041487
-0.000385028
-0.000313346
-0.000183231
6.39402e-06
0.0002233
0.000500736
0.000814943
0.00116278
0.00158185
2.32376e-05
-1.5761e-06
-4.21011e-05
-0.000148296
-0.000219331
-0.000297352
-0.000348195
-0.000418668
-0.000444555
-0.000441746
-0.000409914
-0.000379981
-0.000311905
-0.000186595
-1.50255e-05
0.000174177
0.000391833
0.000641701
0.000965474
0.00135661
3.04172e-05
-2.57378e-06
-4.25551e-05
-0.000146632
-0.000221412
-0.000293282
-0.000349974
-0.000416123
-0.000439848
-0.000436909
-0.000403916
-0.00037537
-0.000313154
-0.000197622
-5.015e-05
8.83176e-05
0.000241575
0.000483165
0.000787516
0.00114883
3.60637e-05
-1.87348e-06
-4.44951e-05
-0.000143969
-0.000224846
-0.00028919
-0.000347466
-0.00041506
-0.000435829
-0.000429195
-0.000398971
-0.000371734
-0.000319889
-0.000223436
-0.000122156
-4.25713e-05
0.000110056
0.000345452
0.000622174
0.000946076
4.19035e-05
1.22723e-06
-4.68843e-05
-0.000142004
-0.000225551
-0.000290302
-0.000341667
-0.000409021
-0.00043264
-0.000422194
-0.000394856
-0.000372734
-0.000338111
-0.000285402
-0.000234467
-0.000147555
2.46387e-06
0.000212793
0.000453381
0.000740542
4.63588e-05
7.16462e-06
-4.87632e-05
-0.000142625
-0.000223033
-0.000290093
-0.000338418
-0.000398155
-0.000427192
-0.000417715
-0.000396597
-0.000389006
-0.000385883
-0.000378294
-0.000320694
-0.000229813
-0.000103308
7.08234e-05
0.000275989
0.000530971
5.10322e-05
1.31091e-05
-4.72932e-05
-0.000145061
-0.000220013
-0.000285266
-0.000336017
-0.000390201
-0.000418868
-0.000416416
-0.000409378
-0.000430399
-0.000469551
-0.000452976
-0.000386484
-0.00031061
-0.000216612
-8.09227e-05
9.04848e-05
0.000318755
5.47991e-05
1.89865e-05
-4.16465e-05
-0.000145381
-0.000221799
-0.000276893
-0.000328466
-0.000385647
-0.000415299
-0.000420203
-0.000445503
-0.000505242
-0.000534445
-0.000509732
-0.000455028
-0.000401193
-0.000339005
-0.000240756
-0.000100747
0.000104974
5.88012e-05
2.42149e-05
-3.31407e-05
-0.000140417
-0.00022611
-0.000272133
-0.000314957
-0.000379969
-0.000425442
-0.000446352
-0.000498693
-0.00056258
-0.000590014
-0.000570751
-0.000532406
-0.000502567
-0.000470396
-0.000406405
-0.000295983
-0.000109955
6.31438e-05
2.90806e-05
-2.49909e-05
-0.000128965
-0.000223389
-0.000275448
-0.000308244
-0.000372762
-0.000449799
-0.000501553
-0.000547538
-0.000606251
-0.000643336
-0.000637681
-0.000618731
-0.000613242
-0.000609159
-0.000576192
-0.000493066
-0.00032435
6.79963e-05
3.50702e-05
-1.84994e-05
-0.000113353
-0.000211148
-0.000280546
-0.000318821
-0.000378417
-0.000476943
-0.000554186
-0.000601433
-0.000654971
-0.000700651
-0.00071128
-0.000712355
-0.000731329
-0.000754782
-0.000750382
-0.000690946
-0.000537279
7.36968e-05
4.28178e-05
-1.18598e-05
-0.000101445
-0.000191268
-0.000276908
-0.000347417
-0.000415698
-0.00050289
-0.000589467
-0.00064998
-0.00070893
-0.000764991
-0.000792646
-0.00081373
-0.000856867
-0.000907179
-0.000928915
-0.000889858
-0.000748898
7.89259e-05
5.30557e-05
-9.28207e-07
-9.45743e-05
-0.000177563
-0.00026803
-0.00037187
-0.000468681
-0.000553594
-0.000627405
-0.000690444
-0.00076186
-0.00083457
-0.000881985
-0.000922966
-0.000988788
-0.00106473
-0.00111083
-0.00109002
-0.000959625
8.68886e-05
6.22611e-05
1.45851e-05
-8.66479e-05
-0.000177922
-0.000266623
-0.000389516
-0.000516215
-0.000612467
-0.000680279
-0.000737488
-0.000814352
-0.000906833
-0.000977659
-0.00103969
-0.00112588
-0.00122541
-0.00129473
-0.00129143
-0.0011701
9.80363e-05
7.0767e-05
2.80177e-05
-7.38533e-05
-0.000188319
-0.000281391
-0.000405723
-0.000550125
-0.000668276
-0.000745254
-0.000798914
-0.00087594
-0.000983031
-0.00107892
-0.00116338
-0.0012681
-0.00138818
-0.0014798
-0.00149393
-0.00138083
0.000111996
8.16878e-05
3.72889e-05
-6.09517e-05
-0.000197288
-0.000314957
-0.000435407
-0.000580497
-0.000713186
-0.000808487
-0.000872579
-0.000950389
-0.00106735
-0.0011855
-0.00129327
-0.00141597
-0.00155379
-0.00166548
-0.00169634
-0.00159102
0.000127983
9.59999e-05
4.3078e-05
-5.75203e-05
-0.000205156
-0.000348326
-0.000480376
-0.000619304
-0.000753188
-0.000865423
-0.000947898
-0.00103545
-0.00116138
-0.00129847
-0.00142893
-0.00156943
-0.00172251
-0.00185092
-0.00189688
-0.00179955
0.000146054
0.000112886
4.75102e-05
-6.49533e-05
-0.000219979
-0.000378562
-0.00052569
-0.000668689
-0.000800551
-0.000921745
-0.00102305
-0.0011254
-0.00126437
-0.00141865
-0.00156999
-0.00172757
-0.00189391
-0.00203615
-0.00209522
-0.00200612
0.000165891
0.000130221
5.06038e-05
-7.8629e-05
-0.000244569
-0.000410412
-0.000568925
-0.000720317
-0.000856019
-0.000984182
-0.00110088
-0.0012188
-0.00137283
-0.00154567
-0.00171604
-0.00188968
-0.00206774
-0.00222151
-0.00229173
-0.00221039
0.000186924
0.000146883
5.12594e-05
-9.55933e-05
-0.000275963
-0.000450454
-0.000613471
-0.000772604
-0.000916111
-0.00105299
-0.00118459
-0.0013168
-0.00148458
-0.00167665
-0.00186647
-0.00205529
-0.00224351
-0.00240633
-0.00248583
-0.00241132
0.000207982
0.000162088
4.91075e-05
-0.000115334
-0.000310767
-0.0004958
-0.000663178
-0.000827102
-0.000979592
-0.00112702
-0.00127376
-0.00142144
-0.00160097
-0.00180974
-0.00201923
-0.00222351
-0.0024209
-0.00259024
-0.00267679
-0.00260786
0.000227718
0.00017515
4.42521e-05
-0.00013776
-0.000347401
-0.000544652
-0.000718444
-0.000886324
-0.00104698
-0.00120603
-0.00136769
-0.00153184
-0.00172335
-0.00194528
-0.00217238
-0.00239239
-0.00259922
-0.00277342
-0.00286459
-0.00279971
0.000245012
0.000185337
3.70629e-05
-0.000162158
-0.000385736
-0.000596197
-0.000778801
-0.000951124
-0.00111859
-0.00128977
-0.00146627
-0.00164612
-0.00185111
-0.00208431
-0.00232572
-0.00256014
-0.0027766
-0.00295521
-0.00304917
-0.00298683
0.000258693
0.000191913
2.76353e-05
-0.000188392
-0.000425538
-0.000649285
-0.000842849
-0.00102198
-0.00119543
-0.0013772
-0.00156968
-0.00176448
-0.00198191
-0.00222621
-0.00247909
-0.00272566
-0.00295098
-0.00313426
-0.00323047
-0.00316971
0.000267867
0.000194377
1.56411e-05
-0.000216287
-0.000466359
-0.00070335
-0.000909337
-0.00109785
-0.00127881
-0.00146854
-0.00167584
-0.00188689
-0.00211453
-0.00236888
-0.00263226
-0.00288904
-0.00312214
-0.00330957
-0.00340796
-0.00334815
0.000271787
0.000192135
9.39157e-07
-0.000245662
-0.000508063
-0.000758027
-0.000977532
-0.00117674
-0.00136751
-0.00156523
-0.00178324
-0.00201096
-0.00224955
-0.00251153
-0.00278435
-0.00304984
-0.00328992
-0.00348046
-0.00358022
-0.00352079
0.000269513
0.000184711
-1.65448e-05
-0.000276197
-0.000550533
-0.000812758
-0.00104633
-0.00125785
-0.00145915
-0.00166664
-0.00189336
-0.00213438
-0.0023858
-0.00265413
-0.00293391
-0.00320664
-0.003453
-0.00364662
-0.00374672
-0.003687
0.000261019
0.000171756
-3.72318e-05
-0.000307692
-0.000593296
-0.000867281
-0.00111443
-0.00133991
-0.00155267
-0.00177009
-0.00200614
-0.00225722
-0.00252041
-0.00279598
-0.00308047
-0.0033588
-0.00361013
-0.00380722
-0.00390754
-0.00384686
0.000245746
0.0001529
-6.15041e-05
-0.000340032
-0.000635512
-0.000921028
-0.00118123
-0.0014205
-0.00164679
-0.00187437
-0.00211912
-0.00237933
-0.00265184
-0.002935
-0.00322348
-0.00350564
-0.00376045
-0.00396032
-0.00406148
-0.00399979
0.000223427
0.000128044
-8.94369e-05
-0.000373132
-0.000676383
-0.000972645
-0.00124611
-0.0014985
-0.00173855
-0.00197834
-0.00223099
-0.00249897
-0.00277918
-0.00306863
-0.00336107
-0.00364605
-0.0039034
-0.00410477
-0.00420663
-0.00414422
0.00019395
9.73043e-05
-0.000120832
-0.000406736
-0.000715353
-0.00102071
-0.00130722
-0.00157329
-0.00182621
-0.00207846
-0.00234007
-0.00261468
-0.00290126
-0.00319555
-0.00349117
-0.00377853
-0.00403791
-0.00423986
-0.00434127
-0.00427778
0.000157431
6.07468e-05
-0.000155281
-0.000440172
-0.000751638
-0.00106455
-0.00136245
-0.00164233
-0.00190892
-0.00217225
-0.00244302
-0.00272501
-0.00301692
-0.00331513
-0.00361259
-0.00390115
-0.00416203
-0.00436448
-0.00446494
-0.00439957
0.000114649
1.88878e-05
-0.000192645
-0.0004731
-0.000784083
-0.00110266
-0.00141076
-0.0017027
-0.00198312
-0.00225876
-0.00253737
-0.00282643
-0.003124
-0.00342604
-0.0037252
-0.00401324
-0.00427438
-0.00447729
-0.00457734
-0.00451012
6.72698e-05
-2.70505e-05
-0.00023252
-0.000506355
-0.000813395
-0.00113358
-0.00145046
-0.00175326
-0.00204448
-0.00233367
-0.00262142
-0.00291519
-0.00321816
-0.00352386
-0.00382567
-0.0041135
-0.00437381
-0.00457688
-0.00467686
-0.00460852
1.86937e-05
-7.43556e-05
-0.000273454
-0.000539991
-0.000842468
-0.00116185
-0.00148328
-0.00179495
-0.00209306
-0.00239116
-0.00268996
-0.00298863
-0.00329493
-0.0036041
-0.00390854
-0.00419712
-0.0044559
-0.00465912
-0.00476112
-0.00469623
-2.66898e-05
-0.000117846
-0.000311372
-0.000570614
-0.000868019
-0.00118611
-0.00150858
-0.0018264
-0.00213112
-0.00243033
-0.00273384
-0.00303549
-0.00333724
-0.00364201
-0.00394268
-0.00422741
-0.0044789
-0.00467397
-0.00477024
-0.00470327
-6.91409e-05
-0.000162226
-0.000354226
-0.000610067
-0.000904957
-0.00122397
-0.00154922
-0.00187289
-0.00218735
-0.00249172
-0.00279787
-0.00310344
-0.00340175
-0.00369629
-0.00398322
-0.00425136
-0.00448219
-0.00464918
-0.0047134
-0.00461832
0.00329207
0.00348866
0.00337223
0.00324163
0.00313112
0.00298512
0.00275829
0.00245578
0.00211372
0.00176114
0.00140685
0.00105012
0.000689647
0.000327555
-3.84501e-05
-0.000411948
-0.000797323
-0.00121161
-0.00167339
-0.00218477
-0.00275221
-0.00339333
-0.00410611
-0.0048706
-0.00564864
-0.0063809
-0.0069814
-0.00736494
-0.00749588
-0.00739434
-0.00713271
-0.00680073
-0.00646657
-0.00616666
-0.00592464
-0.00574814
-0.00562934
-0.0055616
-0.00553482
-0.0055414
-0.00557264
-0.00562196
-0.00568401
-0.00575094
-0.00582657
-0.0059045
-0.00598262
-0.00606842
-0.0061498
-0.00622883
-0.00630731
-0.00638426
-0.00646512
-0.00654138
-0.00662181
-0.00670514
-0.00678475
-0.00686743
-0.00694542
-0.00702422
-0.00710551
-0.00718478
-0.00726946
-0.00734955
-0.00743268
-0.00752164
-0.00760085
-0.00767889
-0.00776095
-0.00784896
-0.00793282
-0.00801008
-0.00809939
-0.00817999
-0.00825025
-0.00834212
-0.00842697
-0.00849432
-0.00857961
-0.00865763
-0.00871627
-0.00879607
-0.00888622
-0.00894549
-0.00899811
-0.00907697
-0.0091542
-0.00920806
-0.00926581
-0.00933577
-0.00939816
-0.0094534
-0.00951364
-0.00957465
-0.00962894
-0.0096856
-0.00974309
-0.00979444
-0.00983978
-0.00988296
0.00269154
0.003118
0.00326632
0.00322413
0.0031122
0.00295214
0.00272189
0.00242311
0.00208543
0.00173542
0.00138224
0.00102606
0.000665955
0.000304422
-6.06581e-05
-0.000433171
-0.000817179
-0.00122924
-0.00168868
-0.00219751
-0.00276093
-0.00339609
-0.00410093
-0.00485429
-0.00561963
-0.00634051
-0.00693591
-0.00732409
-0.00746421
-0.0073715
-0.00711621
-0.0067883
-0.00645616
-0.00615806
-0.00591757
-0.00574215
-0.00562399
-0.00555671
-0.00553027
-0.00553712
-0.00556864
-0.00561816
-0.00568041
-0.00574758
-0.00582346
-0.00590156
-0.00597982
-0.00606583
-0.00614736
-0.00622655
-0.00630519
-0.00638229
-0.00646332
-0.00653967
-0.00662022
-0.00670366
-0.00678335
-0.00686616
-0.00694419
-0.00702308
-0.00710448
-0.00718377
-0.00726853
-0.00734864
-0.00743183
-0.00752088
-0.0076001
-0.00767819
-0.00776027
-0.00784833
-0.00793225
-0.0080095
-0.00809889
-0.00817953
-0.00824974
-0.0083417
-0.00842661
-0.00849391
-0.00857927
-0.00865735
-0.00871594
-0.00879578
-0.00888602
-0.00894528
-0.00899786
-0.00907678
-0.00915406
-0.0092079
-0.00926565
-0.00933565
-0.00939806
-0.00945329
-0.00951355
-0.00957458
-0.00962886
-0.00968553
-0.00974304
-0.0097944
-0.00983975
-0.00988295
0.0023714
0.00290252
0.00321112
0.0032567
0.00314681
0.00296006
0.00270902
0.00240154
0.0020617
0.00171096
0.00135657
0.000998862
0.000637446
0.000274983
-9.01975e-05
-0.000462146
-0.000845213
-0.00125501
-0.00171103
-0.00221647
-0.0027744
-0.00339952
-0.00408944
-0.00482101
-0.00555863
-0.00625123
-0.00682713
-0.00721156
-0.00736613
-0.00730002
-0.00707087
-0.00676131
-0.00644034
-0.00614879
-0.00591366
-0.00574223
-0.00562617
-0.00555951
-0.00553291
-0.00553929
-0.00557014
-0.00561907
-0.0056809
-0.00574761
-0.00582321
-0.00590107
-0.00597901
-0.00606478
-0.00614603
-0.00622505
-0.00630362
-0.00638066
-0.00646176
-0.00653813
-0.00661868
-0.00670214
-0.00678176
-0.00686457
-0.00694265
-0.00702161
-0.00710311
-0.00718247
-0.00726733
-0.00734745
-0.00743063
-0.00751976
-0.00759903
-0.0076772
-0.00775934
-0.00784744
-0.00793139
-0.00800865
-0.00809815
-0.00817885
-0.00824906
-0.00834109
-0.00842603
-0.00849331
-0.00857878
-0.00865692
-0.00871548
-0.00879537
-0.00888568
-0.00894495
-0.00899754
-0.00907652
-0.00915384
-0.00920767
-0.00926545
-0.00933549
-0.00939791
-0.00945315
-0.00951343
-0.00957448
-0.00962877
-0.00968546
-0.00974299
-0.00979437
-0.00983982
-0.00988305
0.00210206
0.00267126
0.00307513
0.00320878
0.00313605
0.00294746
0.00268162
0.00236329
0.0020199
0.00166981
0.00131668
0.000959382
0.000597691
0.000235058
-0.000129541
-0.000500635
-0.000882708
-0.0012893
-0.00174054
-0.00224133
-0.00279164
-0.00340242
-0.00407146
-0.00477694
-0.00548303
-0.00614377
-0.00669683
-0.00707662
-0.00724714
-0.00721129
-0.00701337
-0.00672699
-0.00642065
-0.00613784
-0.00590822
-0.00574029
-0.00562602
-0.00555987
-0.00553307
-0.00553889
-0.00556903
-0.00561745
-0.00567879
-0.00574513
-0.00582066
-0.00589842
-0.00597625
-0.00606182
-0.00614274
-0.00622166
-0.0063003
-0.00637739
-0.00645869
-0.00653529
-0.00661598
-0.00669946
-0.00677901
-0.00686191
-0.00694017
-0.00701918
-0.00710082
-0.00718046
-0.00726546
-0.00734558
-0.00742876
-0.0075179
-0.00759726
-0.00767561
-0.00775783
-0.00784593
-0.00792987
-0.00800711
-0.0080967
-0.00817758
-0.00824783
-0.00833983
-0.00842476
-0.00849208
-0.00857763
-0.00865589
-0.00871452
-0.00879438
-0.00888471
-0.0089441
-0.0089968
-0.00907578
-0.00915311
-0.00920703
-0.00926489
-0.00933497
-0.00939742
-0.00945271
-0.00951304
-0.00957414
-0.00962847
-0.0096852
-0.00974277
-0.00979421
-0.00983989
-0.00988319
0.00185534
0.00243596
0.0029034
0.00311988
0.00310643
0.00293671
0.0026663
0.00233653
0.00198418
0.00163018
0.00127658
0.000919366
0.000557081
0.000194302
-0.00016926
-0.000539236
-0.000920159
-0.00132309
-0.00176873
-0.00226385
-0.00280515
-0.00339917
-0.00404433
-0.00472118
-0.00539562
-0.0060255
-0.00655663
-0.0069319
-0.00711737
-0.00711101
-0.00694619
-0.00668642
-0.00639767
-0.00612529
-0.00590131
-0.0057365
-0.00562401
-0.00555874
-0.00553214
-0.00553772
-0.00556739
-0.0056154
-0.00567633
-0.00574241
-0.00581791
-0.00589562
-0.00597331
-0.00605858
-0.00613904
-0.00621779
-0.00629651
-0.00637357
-0.00645497
-0.00653185
-0.00661267
-0.00669614
-0.00677552
-0.00685843
-0.00693692
-0.0070159
-0.00709769
-0.00717775
-0.00726284
-0.00734299
-0.00742615
-0.00751515
-0.00759468
-0.00767332
-0.00775557
-0.00784365
-0.00792759
-0.00800473
-0.00809442
-0.0081756
-0.00824592
-0.00833776
-0.0084227
-0.00849009
-0.00857565
-0.00865414
-0.00871298
-0.00879268
-0.00888292
-0.00894263
-0.00899555
-0.00907444
-0.00915176
-0.00920588
-0.00926387
-0.00933399
-0.0093965
-0.00945189
-0.00951229
-0.00957346
-0.00962787
-0.00968466
-0.00974232
-0.00979383
-0.00983987
-0.00988331
0.00162293
0.00220467
0.0027205
0.00300777
0.00305893
0.00292399
0.00266022
0.00232029
0.00195425
0.0015912
0.00123455
0.000876977
0.000514133
0.000150972
-0.000211341
-0.000579344
-0.0009586
-0.00135772
-0.0017967
-0.00228451
-0.00281552
-0.00339168
-0.00401187
-0.00466004
-0.00530411
-0.00590476
-0.00641476
-0.00678499
-0.00698368
-0.00700488
-0.00687304
-0.00664155
-0.00637261
-0.00611208
-0.00589414
-0.00573233
-0.00562146
-0.00555711
-0.00553086
-0.00553633
-0.00556562
-0.00561326
-0.00567387
-0.00573966
-0.00581511
-0.00589276
-0.00597014
-0.00605504
-0.00613502
-0.00621349
-0.00629226
-0.00636927
-0.0064508
-0.00652797
-0.00660885
-0.00669237
-0.00677152
-0.0068543
-0.00693309
-0.00701209
-0.00709402
-0.00717452
-0.00725976
-0.00733994
-0.00742299
-0.00751179
-0.00759156
-0.00767054
-0.0077528
-0.00784081
-0.00792473
-0.00800176
-0.00809151
-0.00817308
-0.00824347
-0.00833505
-0.00842
-0.00848748
-0.00857298
-0.00865176
-0.00871092
-0.00879034
-0.00888039
-0.00894058
-0.00899382
-0.00907251
-0.00914979
-0.00920423
-0.00926239
-0.00933252
-0.00939511
-0.00945066
-0.00951114
-0.0095724
-0.00962693
-0.00968381
-0.00974159
-0.00979322
-0.00983971
-0.00988334
0.00139548
0.00197789
0.00253106
0.00287798
0.0029911
0.00289957
0.00265306
0.00230894
0.00192906
0.00155347
0.00119033
0.000830972
0.000467485
0.000103594
-0.000257573
-0.000622469
-0.000999113
-0.00139422
-0.00182544
-0.00230397
-0.00282372
-0.00338179
-0.00397646
-0.00459586
-0.00521044
-0.00578323
-0.00627272
-0.00663689
-0.00684636
-0.00689272
-0.00679317
-0.00659134
-0.00634456
-0.00609766
-0.00588654
-0.00572791
-0.00561848
-0.00555488
-0.00552897
-0.00553435
-0.00556326
-0.0056106
-0.00567103
-0.00573651
-0.00581192
-0.00588958
-0.00596662
-0.0060511
-0.00613062
-0.00620872
-0.00628751
-0.0063645
-0.00644619
-0.00652367
-0.00660457
-0.00668816
-0.00676715
-0.00684971
-0.00692878
-0.00700792
-0.00709
-0.00717094
-0.00725637
-0.00733655
-0.00741945
-0.00750807
-0.0075881
-0.00766744
-0.0077497
-0.00783762
-0.00792152
-0.00799842
-0.00808822
-0.00817022
-0.0082407
-0.00833194
-0.00841689
-0.00848448
-0.00856988
-0.00864901
-0.00870854
-0.00878759
-0.00887738
-0.00893818
-0.00899177
-0.00907017
-0.0091474
-0.00920226
-0.00926058
-0.0093307
-0.00939339
-0.00944914
-0.00950969
-0.00957107
-0.00962576
-0.00968272
-0.00974064
-0.00979244
-0.0098394
-0.00988327
0.00116804
0.00175182
0.0023362
0.00273519
0.00290498
0.00286064
0.00263907
0.00229824
0.0019075
0.00151767
0.00114427
0.000780732
0.00041654
5.23728e-05
-0.000307756
-0.000669127
-0.00104177
-0.00143186
-0.00185427
-0.00232178
-0.00282935
-0.00336928
-0.00393822
-0.00452874
-0.00511453
-0.00566065
-0.00613004
-0.006487
-0.0067051
-0.00677444
-0.00670618
-0.006535
-0.00631234
-0.00608106
-0.00587802
-0.00572301
-0.0056149
-0.00555171
-0.005526
-0.00553132
-0.00555995
-0.00560713
-0.00566755
-0.00573287
-0.00580822
-0.00588601
-0.00596278
-0.00604676
-0.00612575
-0.00620343
-0.00628225
-0.00635928
-0.00644115
-0.00651901
-0.00659991
-0.00668353
-0.00676245
-0.0068448
-0.0069241
-0.00700338
-0.00708567
-0.00716712
-0.00725267
-0.00733286
-0.00741565
-0.00750406
-0.00758435
-0.00766409
-0.00774633
-0.00783416
-0.00791804
-0.00799479
-0.00808463
-0.00816712
-0.00823769
-0.00832852
-0.00841348
-0.00848122
-0.0085665
-0.00864597
-0.0087059
-0.00878456
-0.00887407
-0.00893552
-0.0089895
-0.00906758
-0.00914475
-0.00920006
-0.00925856
-0.00932866
-0.00939147
-0.00944742
-0.00950807
-0.00956955
-0.00962442
-0.00968149
-0.00973955
-0.00979154
-0.00983899
-0.00988315
0.000939833
0.00152605
0.00213866
0.00258417
0.00280423
0.00280541
0.0026141
0.00228349
0.00188697
0.00148396
0.00109818
0.000727709
0.000362147
-1.52677e-06
-0.000360916
-0.000719253
-0.00108642
-0.00146972
-0.00188257
-0.00233816
-0.00283232
-0.00335364
-0.00389691
-0.00445857
-0.00501617
-0.00553696
-0.005987
-0.00633589
-0.00656071
-0.00665072
-0.00661214
-0.00647181
-0.00627483
-0.00606119
-0.00586784
-0.00571721
-0.0056106
-0.00554768
-0.00552199
-0.00552732
-0.00555581
-0.00560285
-0.00566341
-0.00572872
-0.00580404
-0.005882
-0.00595855
-0.00604202
-0.00612041
-0.00619765
-0.00627659
-0.00635368
-0.00643575
-0.00651408
-0.00659497
-0.00667853
-0.00675735
-0.00683957
-0.00691913
-0.00699845
-0.007081
-0.00716305
-0.00724871
-0.00732888
-0.0074116
-0.00749977
-0.00758031
-0.00766047
-0.00774268
-0.00783042
-0.00791432
-0.00799088
-0.00808074
-0.00816379
-0.00823446
-0.00832484
-0.0084098
-0.00847773
-0.00856286
-0.00864267
-0.00870305
-0.00878131
-0.00887051
-0.00893264
-0.00898704
-0.00906476
-0.00914188
-0.00919768
-0.00925637
-0.00932644
-0.00938938
-0.00944555
-0.0095063
-0.00956789
-0.00962296
-0.00968014
-0.00973836
-0.00979056
-0.0098385
-0.00988299
0.000713041
0.0013029
0.00194078
0.00242684
0.00269098
0.00273422
0.00257618
0.00226227
0.00186588
0.00145261
0.00105381
0.000673753
0.000304978
-5.78654e-05
-0.000416355
-0.00077233
-0.00113344
-0.00150812
-0.0019104
-0.00235324
-0.00283238
-0.00333434
-0.0038525
-0.00438598
-0.00491611
-0.00541262
-0.0058438
-0.00618378
-0.00641328
-0.00652136
-0.00651069
-0.00640096
-0.00623109
-0.00603742
-0.0058559
-0.00571093
-0.00560614
-0.00554341
-0.00551735
-0.00552233
-0.00555065
-0.00559745
-0.00565828
-0.00572387
-0.00579934
-0.00587758
-0.00595394
-0.00603701
-0.00611485
-0.00619149
-0.00627053
-0.00634774
-0.00642995
-0.00650876
-0.00658968
-0.00667317
-0.00675184
-0.00683394
-0.00691391
-0.00699329
-0.00707591
-0.00715862
-0.00724454
-0.0073246
-0.0074072
-0.00749518
-0.00757597
-0.00765658
-0.00773875
-0.00782638
-0.00791035
-0.00798673
-0.00807655
-0.00816017
-0.00823101
-0.0083209
-0.00840584
-0.00847398
-0.00855897
-0.00863911
-0.00869999
-0.00877784
-0.00886668
-0.00892954
-0.00898442
-0.00906174
-0.0091388
-0.00919513
-0.00925402
-0.00932405
-0.00938714
-0.00944353
-0.0095044
-0.00956611
-0.0096214
-0.00967869
-0.00973708
-0.00978951
-0.00983792
-0.00988279
0.000488122
0.00108232
0.00174242
0.00226365
0.00256729
0.00264926
0.00252516
0.00223268
0.00184149
0.00142153
0.001011
0.000620191
0.000246064
-0.000116583
-0.000473391
-0.000827278
-0.00118281
-0.00154767
-0.00193767
-0.00236657
-0.00282968
-0.00331196
-0.00380561
-0.00431155
-0.00481462
-0.00528738
-0.00570009
-0.00603076
-0.00626336
-0.00638726
-0.00640278
-0.00632306
-0.00618127
-0.00600949
-0.00584165
-0.00570367
-0.00560113
-0.00553843
-0.00551172
-0.00551603
-0.00554417
-0.00559097
-0.00565233
-0.00571849
-0.0057942
-0.0058728
-0.00594886
-0.00603149
-0.00610896
-0.00618486
-0.00626391
-0.00634137
-0.00642369
-0.00650302
-0.00658406
-0.00666752
-0.006746
-0.00682782
-0.00690831
-0.0069879
-0.00707037
-0.00715372
-0.00724011
-0.00732007
-0.00740244
-0.00749026
-0.00757134
-0.0076524
-0.00773453
-0.00782202
-0.00790609
-0.00798232
-0.00807204
-0.00815624
-0.00822733
-0.00831672
-0.00840158
-0.00846994
-0.00855481
-0.0086353
-0.00869671
-0.00877411
-0.00886257
-0.00892622
-0.00898161
-0.0090585
-0.00913548
-0.00919239
-0.00925151
-0.00932148
-0.00938474
-0.00944137
-0.00950237
-0.00956419
-0.00961971
-0.00967714
-0.0097357
-0.00978838
-0.00983726
-0.00988254
0.000264917
0.000864071
0.00154412
0.00209637
0.0024352
0.00255196
0.00246055
0.00219276
0.0018111
0.00138815
0.000968488
0.000567779
0.000186568
-0.000177753
-0.000532303
-0.00088342
-0.00123415
-0.00158928
-0.00196506
-0.00237797
-0.00282425
-0.0032869
-0.00375607
-0.00423462
-0.00471153
-0.00516153
-0.00555651
-0.00587778
-0.0061122
-0.00624966
-0.00628911
-0.00623832
-0.00612476
-0.00597621
-0.00582378
-0.0056945
-0.00559537
-0.00553295
-0.00550561
-0.00550901
-0.00553672
-0.00558354
-0.00564545
-0.00571213
-0.00578814
-0.00586733
-0.00594321
-0.00602538
-0.0061027
-0.00617792
-0.00625683
-0.00633455
-0.00641703
-0.00649687
-0.00657801
-0.00666144
-0.00673977
-0.00682117
-0.00690209
-0.00698212
-0.00706456
-0.00714841
-0.00723529
-0.00731526
-0.00739734
-0.00748492
-0.00756638
-0.00764793
-0.00772997
-0.00781731
-0.00790151
-0.00797759
-0.00806721
-0.008152
-0.00822338
-0.00831225
-0.00839702
-0.0084656
-0.00855036
-0.00863123
-0.00869321
-0.00877014
-0.00885816
-0.00892265
-0.00897861
-0.00905502
-0.00913193
-0.00918946
-0.00924882
-0.00931872
-0.00938216
-0.00943905
-0.00950018
-0.00956213
-0.0096179
-0.00967548
-0.00973421
-0.00978717
-0.0098365
-0.00988221
4.41476e-05
0.000648157
0.00134586
0.00192553
0.00229557
0.00244331
0.00238248
0.00214122
0.0017734
0.00135094
0.000924959
0.000516217
0.00012776
-0.000240245
-0.000593137
-0.000940124
-0.00128621
-0.00163251
-0.00199275
-0.00238702
-0.00281552
-0.00325953
-0.00370455
-0.00415575
-0.00460765
-0.00503615
-0.00541384
-0.00572513
-0.00596017
-0.00610911
-0.00617004
-0.00614664
-0.00606103
-0.00593676
-0.00580172
-0.00568311
-0.0055889
-0.00552735
-0.00549909
-0.00550116
-0.00552798
-0.00557457
-0.00563719
-0.00570462
-0.00578117
-0.00586137
-0.00593727
-0.00601879
-0.00609588
-0.0061706
-0.00624935
-0.00632721
-0.00640981
-0.00649017
-0.00657145
-0.00665486
-0.00673317
-0.00681415
-0.00689532
-0.00697589
-0.00705856
-0.00714279
-0.00722997
-0.00731004
-0.00739191
-0.00747915
-0.00756103
-0.00764319
-0.00772509
-0.00781224
-0.0078966
-0.00797253
-0.00806204
-0.0081475
-0.00821915
-0.00830744
-0.00839214
-0.008461
-0.0085456
-0.00862684
-0.00868945
-0.00876588
-0.00885344
-0.00891884
-0.00897541
-0.00905129
-0.00912811
-0.00918632
-0.00924594
-0.00931576
-0.0093794
-0.00943656
-0.00949784
-0.00955993
-0.00961596
-0.00967371
-0.0097326
-0.00978586
-0.00983564
-0.0098818
-0.000174174
0.000433863
0.00114675
0.00175112
0.00214973
0.00232562
0.00229265
0.00207794
0.00172738
0.00130887
0.000879082
0.000464467
7.01471e-05
-0.000302634
-0.000655472
-0.000997056
-0.00133723
-0.00167598
-0.00202129
-0.0023951
-0.00280426
-0.00323034
-0.00365218
-0.00407568
-0.00450257
-0.00491068
-0.00527188
-0.00557287
-0.00580752
-0.00596638
-0.00604651
-0.00604853
-0.00599013
-0.00589099
-0.00577507
-0.00566858
-0.00558067
-0.00552091
-0.00549173
-0.00549221
-0.00551813
-0.00556429
-0.00562778
-0.00569634
-0.00577331
-0.00585458
-0.00593074
-0.00601144
-0.00608823
-0.00616258
-0.00624135
-0.00631943
-0.006402
-0.00648301
-0.00656455
-0.00664782
-0.00672611
-0.00680671
-0.00688799
-0.00696904
-0.00705204
-0.00713685
-0.00722428
-0.00730432
-0.00738609
-0.00747306
-0.0075553
-0.00763813
-0.0077199
-0.00780676
-0.00789133
-0.00796712
-0.00805652
-0.0081427
-0.00821463
-0.00830225
-0.0083869
-0.00845612
-0.00854051
-0.0086221
-0.00868545
-0.00876138
-0.00884839
-0.00891475
-0.00897199
-0.0090473
-0.00912402
-0.00918298
-0.00924287
-0.00931258
-0.00937645
-0.00943391
-0.00949533
-0.00955757
-0.00961387
-0.00967183
-0.00973088
-0.00978445
-0.00983467
-0.0098813
-0.000390417
0.000220857
0.000946549
0.00157339
0.00199885
0.00220056
0.0021922
0.00200222
0.00167126
0.00126053
0.000829396
0.000411034
1.28502e-05
-0.00036401
-0.000717965
-0.00105437
-0.00138716
-0.00171918
-0.00205143
-0.00240383
-0.00279091
-0.00319814
-0.00359856
-0.00399489
-0.00439602
-0.00478485
-0.00513148
-0.00542222
-0.005655
-0.00582219
-0.0059196
-0.00594495
-0.00591234
-0.00583857
-0.00574289
-0.00564979
-0.00556978
-0.00551326
-0.00548395
-0.00548283
-0.00550757
-0.00555301
-0.00561699
-0.00568689
-0.00576422
-0.00584646
-0.00592335
-0.00600341
-0.00607992
-0.00615388
-0.0062328
-0.00631143
-0.00639386
-0.0064753
-0.00655714
-0.0066401
-0.00671831
-0.00679868
-0.0068802
-0.00696169
-0.00704496
-0.00713057
-0.00721845
-0.00729817
-0.00737968
-0.00746656
-0.00754918
-0.00763266
-0.00771434
-0.00780087
-0.00788567
-0.00796139
-0.00805058
-0.00813751
-0.00820985
-0.00829673
-0.00838128
-0.00845093
-0.00853511
-0.00861702
-0.00868117
-0.00875659
-0.00884298
-0.00891037
-0.00896836
-0.00904303
-0.00911965
-0.00917941
-0.00923958
-0.00930919
-0.00937329
-0.00943107
-0.00949265
-0.00955504
-0.00961163
-0.00966981
-0.00972902
-0.00978291
-0.00983358
-0.00988068
-0.000604747
9.38055e-06
0.000745663
0.00139217
0.00184294
0.002069
0.00208252
0.00191462
0.001604
0.00120491
0.000775657
0.000355306
-4.50433e-05
-0.000424134
-0.000779397
-0.00111216
-0.00143659
-0.00176067
-0.0020815
-0.00241317
-0.00277582
-0.00316234
-0.00354346
-0.00391515
-0.00428993
-0.00465938
-0.00499322
-0.00527405
-0.0055032
-0.00567698
-0.00579009
-0.00583672
-0.00582788
-0.00577884
-0.00570434
-0.00562614
-0.00555574
-0.00550395
-0.00547556
-0.00547297
-0.00549599
-0.00554061
-0.00560485
-0.00567605
-0.00575407
-0.00583711
-0.005915
-0.00599481
-0.006071
-0.00614448
-0.00622334
-0.00630284
-0.0063854
-0.00646695
-0.00654908
-0.00663179
-0.00670992
-0.00679023
-0.00687201
-0.00695399
-0.00703738
-0.00712358
-0.00721222
-0.00729177
-0.00737269
-0.00745947
-0.00754274
-0.00762688
-0.00770837
-0.00779458
-0.00787966
-0.0079553
-0.00804417
-0.00813191
-0.00820484
-0.00829093
-0.0083752
-0.00844533
-0.00852938
-0.00861162
-0.00867656
-0.00875146
-0.00883722
-0.00890571
-0.00896447
-0.00903845
-0.00911496
-0.00917561
-0.00923607
-0.00930554
-0.00936991
-0.00942803
-0.00948977
-0.00955234
-0.00960923
-0.00966766
-0.00972702
-0.00978125
-0.00983238
-0.00987995
-0.000817262
-0.000200022
0.000545217
0.00120818
0.00168206
0.00193184
0.00196567
0.00181713
0.00152599
0.0011415
0.000717857
0.000296902
-0.000104521
-0.000483748
-0.00083924
-0.00116929
-0.00148525
-0.00179964
-0.00211002
-0.00242332
-0.00276074
-0.00312437
-0.00348721
-0.00383733
-0.00418572
-0.00453399
-0.0048559
-0.00512834
-0.00535284