/*--------------------------------*- C++ -*----------------------------------*\
| =========                 |                                                 |
| \\      /  F ield         | OpenFOAM: The Open Source CFD Toolbox           |
|  \\    /   O peration     | Version:  v1906                                 |
|   \\  /    A nd           | Web:      www.OpenFOAM.com                      |
|    \\/     M anipulation  |                                                 |
\*---------------------------------------------------------------------------*/
FoamFile
{
    version     2.0;
    format      ascii;
    class       surfaceScalarField;
    location    "1";
    object      phi;
}
// * * * * * * * * * * * * * * * * * * * * * * * * * * * * * * * * * * * * * //

dimensions      [0 3 -1 0 0 0 0];
oriented        oriented;


internalField   nonuniform List<scalar> 
9440
(
3.88134e-06
-6.40061e-09
3.87808e-06
-1.49558e-08
3.87975e-06
4.13079e-09
3.87677e-06
-1.75579e-08
3.87951e-06
1.58932e-08
3.87837e-06
-1.31996e-08
3.88022e-06
1.00496e-08
3.88003e-06
-1.75993e-08
3.88115e-06
2.86409e-09
3.88099e-06
-2.56209e-08
3.88222e-06
-3.11841e-09
3.88223e-06
-2.4214e-08
3.88341e-06
-2.7736e-09
3.88302e-06
-2.17642e-08
3.8841e-06
-3.33485e-09
3.88396e-06
-1.78168e-08
3.88369e-06
-1.98946e-09
3.87851e-06
-1.16779e-08
3.86578e-06
1.44186e-08
3.08489e-08
3.8422e-06
4.18319e-06
-3.72595e-09
4.18722e-06
-1.89922e-08
4.18412e-06
7.2276e-09
4.18624e-06
-1.96773e-08
4.18528e-06
1.686e-08
4.18705e-06
-1.49748e-08
4.18704e-06
1.0062e-08
4.18721e-06
-1.77742e-08
4.18807e-06
2.00609e-09
4.18605e-06
-2.35947e-08
4.18784e-06
-4.90905e-09
4.18584e-06
-2.22161e-08
4.18839e-06
-5.3215e-09
4.18714e-06
-2.05207e-08
4.18953e-06
-5.72198e-09
4.18588e-06
-1.41638e-08
4.18475e-06
-8.60027e-10
4.1738e-06
-7.29142e-10
4.16596e-06
2.22565e-08
3.78529e-08
4.15896e-06
4.51762e-06
-1.28518e-09
4.52025e-06
-2.16206e-08
4.51905e-06
8.42423e-09
4.51933e-06
-1.99519e-08
4.52072e-06
1.54668e-08
4.51958e-06
-1.38314e-08
4.52285e-06
6.78882e-09
4.51978e-06
-1.4702e-08
4.52416e-06
-2.37183e-09
4.51913e-06
-1.8567e-08
4.52421e-06
-9.99432e-09
4.51896e-06
-1.69626e-08
4.52509e-06
-1.14511e-08
4.52092e-06
-1.63547e-08
4.52575e-06
-1.05471e-08
4.52086e-06
-9.27083e-09
4.52175e-06
-1.7577e-09
4.50996e-06
1.10615e-08
4.50205e-06
3.01673e-08
4.494e-08
4.49497e-06
4.88031e-06
-6.45994e-10
4.88037e-06
-2.16777e-08
4.88211e-06
6.67506e-09
4.88002e-06
-1.78619e-08
4.88392e-06
1.15723e-08
4.8804e-06
-1.03094e-08
4.88544e-06
1.74997e-09
4.88128e-06
-1.05412e-08
4.88591e-06
-7.01003e-09
4.88231e-06
-1.49603e-08
4.88627e-06
-1.39621e-08
4.88581e-06
-1.64973e-08
4.88821e-06
-1.38487e-08
4.88729e-06
-1.54374e-08
4.88777e-06
-1.10306e-08
4.88399e-06
-5.48848e-09
4.87774e-06
4.49774e-09
4.86698e-06
2.18179e-08
4.86112e-06
3.60306e-08
4.88707e-08
4.85718e-06
5.27068e-06
-6.80487e-10
5.26945e-06
-2.0447e-08
5.27293e-06
3.19802e-09
5.26958e-06
-1.45129e-08
5.27483e-06
6.32401e-09
5.27049e-06
-5.97174e-09
5.27574e-06
-3.50224e-09
5.27204e-06
-6.83881e-09
5.276e-06
-1.09672e-08
5.27577e-06
-1.47335e-08
5.27766e-06
-1.58565e-08
5.27825e-06
-1.70878e-08
5.27978e-06
-1.53748e-08
5.27916e-06
-1.4819e-08
5.27778e-06
-9.64439e-09
5.27206e-06
2.23247e-10
5.26065e-06
1.59069e-08
5.25315e-06
2.93261e-08
5.24948e-06
3.97021e-08
5.11113e-08
5.24723e-06
5.69172e-06
-9.40693e-10
5.68957e-06
-1.82955e-08
5.69423e-06
-1.46139e-09
5.69049e-06
-1.07718e-08
5.69557e-06
1.24322e-09
5.69248e-06
-2.88323e-09
5.69568e-06
-6.70078e-09
5.69584e-06
-6.9974e-09
5.69699e-06
-1.21249e-08
5.69868e-06
-1.64171e-08
5.70032e-06
-1.75002e-08
5.70077e-06
-1.75372e-08
5.7018e-06
-1.6408e-08
5.70006e-06
-1.30745e-08
5.6941e-06
-3.6882e-09
5.6828e-06
1.1524e-08
5.67575e-06
2.29554e-08
5.67183e-06
3.32538e-08
5.66917e-06
4.23581e-08
5.2401e-08
5.66788e-06
6.14623e-06
-1.3047e-09
6.1435e-06
-1.55595e-08
6.14852e-06
-6.48391e-09
6.14556e-06
-7.80881e-09
6.14882e-06
-2.02113e-09
6.14885e-06
-2.90805e-09
6.14853e-06
-6.38298e-09
6.15188e-06
-1.03498e-08
6.15327e-06
-1.35173e-08
6.1545e-06
-1.76392e-08
6.15616e-06
-1.91689e-08
6.15651e-06
-1.78805e-08
6.15525e-06
-1.51479e-08
6.14899e-06
-6.81758e-09
6.13832e-06
6.98175e-09
6.13143e-06
1.84195e-08
6.1274e-06
2.69823e-08
6.1248e-06
3.5852e-08
6.12265e-06
4.45118e-08
5.33229e-08
6.12172e-06
6.63696e-06
-1.70576e-09
6.63406e-06
-1.26531e-08
6.63812e-06
-1.05517e-08
6.63721e-06
-6.89592e-09
6.63789e-06
-2.70372e-09
6.64112e-06
-6.13144e-09
6.64092e-06
-6.18674e-09
6.64294e-06
-1.23718e-08
6.64601e-06
-1.65829e-08
6.64717e-06
-1.8805e-08
6.6477e-06
-1.96954e-08
6.64629e-06
-1.64744e-08
6.64038e-06
-9.23105e-09
6.6308e-06
2.76315e-09
6.62332e-06
1.44538e-08
6.61916e-06
2.25829e-08
6.61648e-06
2.96649e-08
6.61423e-06
3.81024e-08
6.61226e-06
4.64788e-08
5.39596e-08
6.61162e-06
7.16678e-06
-2.05407e-09
7.16426e-06
-1.01379e-08
7.16528e-06
-1.15657e-08
7.16826e-06
-9.87375e-09
7.16776e-06
-2.2063e-09
7.171e-06
-9.37095e-09
7.17358e-06
-8.7711e-09
7.17466e-06
-1.34476e-08
7.17656e-06
-1.84843e-08
7.17834e-06
-2.05911e-08
7.17753e-06
-1.88764e-08
7.17299e-06
-1.19377e-08
7.16337e-06
3.90428e-10
7.15479e-06
1.13406e-08
7.15026e-06
1.89838e-08
7.14734e-06
2.55066e-08
7.14485e-06
3.21545e-08
7.14268e-06
4.02723e-08
7.14117e-06
4.79874e-08
5.44838e-08
7.14064e-06
7.7389e-06
-2.34989e-09
7.73691e-06
-8.15064e-09
7.73634e-06
-1.09905e-08
7.74026e-06
-1.37987e-08
7.74231e-06
-4.25158e-09
7.74244e-06
-9.5063e-09
7.74689e-06
-1.32213e-08
7.74876e-06
-1.53105e-08
7.74973e-06
-1.94551e-08
7.74941e-06
-2.02776e-08
7.74446e-06
-1.39233e-08
7.73551e-06
-2.98603e-09
7.72778e-06
8.12349e-09
7.72369e-06
1.54246e-08
7.72077e-06
2.19023e-08
7.71801e-06
2.82743e-08
7.71544e-06
3.47225e-08
7.71355e-06
4.2158e-08
7.71241e-06
4.91242e-08
5.4948e-08
7.71195e-06
8.35672e-06
-2.60955e-09
8.35551e-06
-6.94121e-09
8.3542e-06
-9.67892e-09
8.35666e-06
-1.6255e-08
8.36174e-06
-9.33134e-09
8.36241e-06
-1.01859e-08
8.36462e-06
-1.54246e-08
8.36725e-06
-1.79383e-08
8.36697e-06
-1.91751e-08
8.36179e-06
-1.50984e-08
8.35399e-06
-6.13097e-09
8.34696e-06
4.04483e-09
8.34275e-06
1.23359e-08
8.3397e-06
1.84722e-08
8.33697e-06
2.46332e-08
8.33427e-06
3.0974e-08
8.33191e-06
3.70882e-08
8.33022e-06
4.38497e-08
8.32933e-06
5.00093e-08
5.53203e-08
8.32896e-06
9.02393e-06
-2.89459e-09
9.02361e-06
-6.61445e-09
9.02273e-06
-8.8081e-09
9.0224e-06
-1.59202e-08
9.02887e-06
-1.57974e-08
9.03243e-06
-1.37511e-08
9.03239e-06
-1.53787e-08
9.03284e-06
-1.8398e-08
9.03084e-06
-1.71722e-08
9.02363e-06
-7.89146e-09
9.01555e-06
1.94922e-09
9.01073e-06
8.87216e-09
9.00795e-06
1.51146e-08
9.00518e-06
2.12394e-08
9.00251e-06
2.73026e-08
9.00001e-06
3.34738e-08
8.99782e-06
3.92787e-08
8.99637e-06
4.52982e-08
8.9956e-06
5.07859e-08
5.55468e-08
8.99537e-06
9.74443e-06
-3.22042e-09
9.74447e-06
-6.65931e-09
9.74502e-06
-9.35659e-09
9.74316e-06
-1.40563e-08
9.74737e-06
-2.0011e-08
9.75318e-06
-1.95613e-08
9.75417e-06
-1.63662e-08
9.7493e-06
-1.35238e-08
9.74404e-06
-1.19128e-08
9.73895e-06
-2.80965e-09
9.73365e-06
7.25073e-09
9.72939e-06
1.31307e-08
9.72648e-06
1.80324e-08
9.72397e-06
2.37447e-08
9.72144e-06
2.9829e-08
9.71912e-06
3.57958e-08
9.71714e-06
4.12651e-08
9.71592e-06
4.65103e-08
9.7152e-06
5.15107e-08
5.56147e-08
9.71513e-06
1.05224e-05
-3.53226e-09
1.05224e-05
-6.66279e-09
1.05242e-05
-1.11431e-08
1.05236e-05
-1.34536e-08
1.05232e-05
-1.9612e-08
1.05283e-05
-2.46829e-08
1.05305e-05
-1.85471e-08
1.05248e-05
-7.83236e-09
1.05168e-05
-3.94433e-09
1.05118e-05
2.17538e-09
1.05092e-05
9.89695e-09
1.0506e-05
1.6319e-08
1.0503e-05
2.10441e-08
1.05003e-05
2.63908e-08
1.0498e-05
3.22092e-08
1.04958e-05
3.79142e-08
1.04942e-05
4.29478e-08
1.0493e-05
4.76364e-08
1.04925e-05
5.20637e-08
5.55323e-08
1.04926e-05
1.13624e-05
-3.78014e-09
1.13625e-05
-6.77587e-09
1.13646e-05
-1.32365e-08
1.13667e-05
-1.54859e-08
1.13642e-05
-1.71724e-08
1.13626e-05
-2.3095e-08
1.13639e-05
-1.98085e-08
1.13628e-05
-6.7149e-09
1.1356e-05
2.87709e-09
1.135e-05
8.15891e-09
1.13467e-05
1.31257e-08
1.13444e-05
1.87049e-08
1.13418e-05
2.36378e-08
1.13391e-05
2.90454e-08
1.13368e-05
3.45151e-08
1.13349e-05
3.98367e-08
1.13334e-05
4.44027e-08
1.13324e-05
4.86165e-08
1.13321e-05
5.24484e-08
5.53276e-08
1.13323e-05
1.22694e-05
-3.81324e-09
1.2271e-05
-8.4191e-09
1.22708e-05
-1.30357e-08
1.22745e-05
-1.92088e-08
1.22731e-05
-1.57532e-08
1.22671e-05
-1.7093e-08
1.22636e-05
-1.63093e-08
1.22628e-05
-5.93843e-09
1.22612e-05
4.49167e-09
1.22567e-05
1.26353e-08
1.22525e-05
1.73631e-08
1.22497e-05
2.15193e-08
1.22474e-05
2.59239e-08
1.22451e-05
3.13914e-08
1.22429e-05
3.66946e-08
1.22411e-05
4.16211e-08
1.22399e-05
4.5617e-08
1.22391e-05
4.94122e-08
1.22389e-05
5.26548e-08
5.49987e-08
1.22392e-05
1.3249e-05
-3.8493e-09
1.32516e-05
-1.10794e-08
1.32506e-05
-1.20157e-08
1.32521e-05
-2.06657e-08
1.32536e-05
-1.72771e-08
1.32478e-05
-1.12714e-08
1.32407e-05
-9.25645e-09
1.32374e-05
-2.60807e-09
1.32365e-05
5.41146e-09
1.32349e-05
1.4183e-08
1.32315e-05
2.07799e-08
1.32281e-05
2.49286e-08
1.32256e-05
2.84511e-08
1.32235e-05
3.34168e-08
1.32216e-05
3.86214e-08
1.322e-05
4.31865e-08
1.3219e-05
4.6696e-08
1.32184e-05
4.99977e-08
1.32183e-05
5.26898e-08
5.45392e-08
1.32188e-05
1.43069e-05
-4.05398e-09
1.4309e-05
-1.31803e-08
1.43102e-05
-1.31547e-08
1.43078e-05
-1.82936e-08
1.43091e-05
-1.85776e-08
1.43064e-05
-8.57517e-09
1.42993e-05
-2.1885e-09
1.42935e-05
3.22852e-09
1.4291e-05
7.93145e-09
1.429e-05
1.51299e-08
1.42883e-05
2.24951e-08
1.42852e-05
2.80588e-08
1.42824e-05
3.12436e-08
1.42803e-05
3.54783e-08
1.42787e-05
4.02439e-08
1.42774e-05
4.44821e-08
1.42765e-05
4.76281e-08
1.42761e-05
5.03686e-08
1.42763e-05
5.2536e-08
5.39302e-08
1.42769e-05
1.54493e-05
-4.37879e-09
1.54505e-05
-1.43465e-08
1.5453e-05
-1.56396e-08
1.54498e-05
-1.50949e-08
1.54471e-05
-1.58793e-08
1.5446e-05
-7.47366e-09
1.54419e-05
1.84941e-09
1.54362e-05
8.93983e-09
1.54318e-05
1.23395e-08
1.543e-05
1.69773e-08
1.54288e-05
2.36974e-08
1.54268e-05
3.00389e-08
1.54241e-05
3.39165e-08
1.5422e-05
3.7581e-08
1.54206e-05
4.16806e-08
1.54195e-05
4.5522e-08
1.54188e-05
4.83396e-08
1.54186e-05
5.05513e-08
1.5419e-05
5.22193e-08
5.31838e-08
1.54197e-05
1.66827e-05
-4.66084e-09
1.66833e-05
-1.48603e-08
1.66851e-05
-1.74398e-08
1.66834e-05
-1.34447e-08
1.66783e-05
-1.08037e-08
1.66754e-05
-4.56507e-09
1.66733e-05
4.00709e-09
1.66698e-05
1.24397e-08
1.66655e-05
1.66443e-08
1.66622e-05
2.0247e-08
1.66607e-05
2.51996e-08
1.66592e-05
3.15577e-08
1.66573e-05
3.58248e-08
1.66553e-05
3.95661e-08
1.6654e-05
4.30042e-08
1.66531e-05
4.63286e-08
1.66527e-05
4.8809e-08
1.66527e-05
5.05345e-08
1.66532e-05
5.17512e-08
5.2292e-08
1.66541e-05
1.80145e-05
-4.74396e-09
1.80145e-05
-1.48306e-08
1.80146e-05
-1.75977e-08
1.80138e-05
-1.26051e-08
1.80097e-05
-6.6936e-09
1.80052e-05
-1.07694e-10
1.80026e-05
6.65617e-09
1.80007e-05
1.43437e-08
1.79974e-05
1.98952e-08
1.7994e-05
2.36164e-08
1.79917e-05
2.74838e-08
1.79903e-05
3.3026e-08
1.79888e-05
3.72962e-08
1.79874e-05
4.09684e-08
1.79862e-05
4.42494e-08
1.79856e-05
4.68621e-08
1.79854e-05
4.90464e-08
1.79856e-05
5.03199e-08
1.79862e-05
5.11347e-08
5.1279e-08
1.79872e-05
1.94525e-05
-4.60901e-09
1.94521e-05
-1.43419e-08
1.94507e-05
-1.62016e-08
1.94491e-05
-1.10753e-08
1.94467e-05
-4.22569e-09
1.94428e-05
3.73202e-09
1.94394e-05
1.00785e-08
1.94374e-05
1.63847e-08
1.94353e-05
2.19915e-08
1.94324e-05
2.6504e-08
1.94299e-05
2.99328e-08
1.94283e-05
3.46362e-08
1.9427e-05
3.86196e-08
1.9426e-05
4.1964e-08
1.94251e-05
4.51061e-08
1.94248e-05
4.71774e-08
1.94249e-05
4.90265e-08
1.94253e-05
4.9906e-08
1.94261e-05
5.03438e-08
5.01569e-08
1.94272e-05
2.10055e-05
-4.28178e-09
2.10044e-05
-1.32194e-08
2.10022e-05
-1.40715e-08
2.1e-05
-8.80337e-09
2.09977e-05
-2.01986e-09
2.09952e-05
6.27596e-09
2.0992e-05
1.32822e-08
2.09895e-05
1.8846e-08
2.09877e-05
2.38075e-08
2.09856e-05
2.86548e-08
2.09834e-05
3.21269e-08
2.09817e-05
3.62844e-08
2.09805e-05
3.97998e-08
2.09798e-05
4.27236e-08
2.09794e-05
4.55204e-08
2.09793e-05
4.72539e-08
2.09796e-05
4.87235e-08
2.09802e-05
4.9293e-08
2.09812e-05
4.93706e-08
4.8922e-08
2.09824e-05
2.26824e-05
-3.78278e-09
2.26806e-05
-1.13473e-08
2.26782e-05
-1.17023e-08
2.26755e-05
-6.16877e-09
2.26732e-05
3.60992e-10
2.26712e-05
8.22743e-09
2.26688e-05
1.5686e-08
2.26664e-05
2.12951e-08
2.26645e-05
2.56885e-08
2.26628e-05
3.03258e-08
2.2661e-05
3.3935e-08
2.26597e-05
3.76104e-08
2.26586e-05
4.08842e-08
2.26581e-05
4.32417e-08
2.2658e-05
4.55789e-08
2.26582e-05
4.7065e-08
2.26588e-05
4.81453e-08
2.26596e-05
4.84656e-08
2.26608e-05
4.82174e-08
4.75508e-08
2.26621e-05
2.44933e-05
-3.1288e-09
2.44909e-05
-8.99702e-09
2.44883e-05
-9.02422e-09
2.44856e-05
-3.49694e-09
2.44831e-05
2.84873e-09
2.44812e-05
1.00978e-08
2.44795e-05
1.74132e-08
2.44775e-05
2.3316e-08
2.44756e-05
2.75447e-08
2.44742e-05
3.17608e-08
2.44729e-05
3.52676e-08
2.44718e-05
3.86444e-08
2.44711e-05
4.15917e-08
2.44708e-05
4.35988e-08
2.4471e-05
4.53473e-08
2.44715e-05
4.65614e-08
2.44723e-05
4.73086e-08
2.44734e-05
4.7395e-08
2.44747e-05
4.68947e-08
4.60246e-08
2.44763e-05
2.64488e-05
-2.37113e-09
2.64462e-05
-6.42213e-09
2.64433e-05
-6.0705e-09
2.64406e-05
-7.99986e-10
2.64381e-05
5.32524e-09
2.64363e-05
1.19087e-08
2.64349e-05
1.8852e-08
2.64334e-05
2.47792e-08
2.64318e-05
2.91182e-08
2.64306e-05
3.30209e-08
2.64296e-05
3.61906e-08
2.6429e-05
3.93246e-08
2.64287e-05
4.18877e-08
2.64287e-05
4.36025e-08
2.64291e-05
4.49429e-08
2.64299e-05
4.57566e-08
2.64309e-05
4.62251e-08
2.64323e-05
4.60721e-08
2.64338e-05
4.54002e-08
4.43458e-08
2.64354e-05
2.85605e-05
-1.55262e-09
2.85579e-05
-3.83719e-09
2.85548e-05
-2.98244e-09
2.85521e-05
1.97406e-09
2.85496e-05
7.73669e-09
2.85479e-05
1.36714e-08
2.85466e-05
2.00976e-08
2.85456e-05
2.58609e-08
2.85445e-05
3.01805e-08
2.85435e-05
3.39952e-08
2.85429e-05
3.67901e-08
2.85427e-05
3.95574e-08
2.85427e-05
4.18366e-08
2.85431e-05
4.31958e-08
2.85438e-05
4.42844e-08
2.85448e-05
4.47182e-08
2.85462e-05
4.48865e-08
2.85477e-05
4.45226e-08
2.85494e-05
4.36932e-08
4.25249e-08
2.85513e-05
3.08408e-05
-7.08032e-10
3.08383e-05
-1.29798e-09
3.08352e-05
1.07986e-10
3.08325e-05
4.70194e-09
3.08302e-05
1.00511e-08
3.08285e-05
1.53654e-08
3.08274e-05
2.11575e-08
3.08266e-05
2.6629e-08
3.0826e-05
3.07976e-08
3.08255e-05
3.44924e-08
3.08252e-05
3.71056e-08
3.08254e-05
3.93495e-08
3.08259e-05
4.1393e-08
3.08266e-05
4.24598e-08
3.08276e-05
4.32443e-08
3.08289e-05
4.34476e-08
3.08305e-05
4.32775e-08
3.08323e-05
4.27718e-08
3.08342e-05
4.17684e-08
4.0551e-08
3.08362e-05
3.33033e-05
1.32897e-10
3.33008e-05
1.13303e-09
3.32978e-05
3.14626e-09
3.32952e-05
7.2789e-09
3.32931e-05
1.21937e-08
3.32915e-05
1.69286e-08
3.32906e-05
2.20596e-08
3.32902e-05
2.70745e-08
3.32899e-05
3.10441e-08
3.32899e-05
3.44794e-08
3.329e-05
3.70014e-08
3.32906e-05
3.87894e-08
3.32915e-05
4.04586e-08
3.32926e-05
4.14176e-08
3.3294e-05
4.1826e-08
3.32955e-05
4.18883e-08
3.32974e-05
4.14409e-08
3.32994e-05
4.07978e-08
3.33014e-05
3.96891e-08
3.83983e-08
3.33036e-05
3.59623e-05
9.57741e-10
3.59601e-05
3.35943e-09
3.59572e-05
5.98601e-09
3.59548e-05
9.74935e-09
3.59528e-05
1.4122e-08
3.59515e-05
1.83052e-08
3.59508e-05
2.27571e-08
3.59506e-05
2.72069e-08
3.59508e-05
3.0885e-08
3.59512e-05
3.40264e-08
3.59519e-05
3.63799e-08
3.59528e-05
3.786e-08
3.59541e-05
3.91271e-08
3.59556e-05
3.9966e-08
3.59573e-05
4.01306e-08
3.59592e-05
3.997e-08
3.59612e-05
3.9404e-08
3.59635e-05
3.85698e-08
3.59657e-05
3.74593e-08
3.60746e-08
3.5968e-05
3.88337e-05
1.74138e-09
3.88317e-05
5.34081e-09
3.88291e-05
8.57788e-09
3.88268e-05
1.2022e-08
3.88251e-05
1.58034e-08
3.8824e-05
1.94323e-08
3.88236e-05
2.31912e-08
3.88237e-05
2.70563e-08
3.88243e-05
3.02987e-08
3.88252e-05
3.31461e-08
3.88263e-05
3.52403e-08
3.88277e-05
3.64851e-08
3.88293e-05
3.74996e-08
3.88313e-05
3.80471e-08
3.88333e-05
3.81361e-08
3.88355e-05
3.7724e-08
3.88378e-05
3.71125e-08
3.88402e-05
3.61412e-08
3.88427e-05
3.50265e-08
3.36283e-08
3.88451e-05
4.19343e-05
2.44956e-09
4.19326e-05
7.08363e-09
4.19303e-05
1.08393e-08
4.19283e-05
1.40201e-08
4.19269e-05
1.72056e-08
4.19261e-05
2.02423e-08
4.1926e-05
2.33208e-08
4.19265e-05
2.65824e-08
4.19274e-05
2.93427e-08
4.19288e-05
3.1794e-08
4.19304e-05
3.36498e-08
4.19322e-05
3.46663e-08
4.19342e-05
3.55112e-08
4.19364e-05
3.5763e-08
4.19388e-05
3.57595e-08
4.19413e-05
3.5217e-08
4.19439e-05
3.45205e-08
4.19465e-05
3.35484e-08
4.19491e-05
3.23934e-08
3.10477e-08
4.19517e-05
4.52826e-05
3.05133e-09
4.52811e-05
8.5668e-09
4.52792e-05
1.2703e-08
4.52776e-05
1.56519e-08
4.52765e-05
1.82741e-08
4.52761e-05
2.07005e-08
4.52762e-05
2.31454e-08
4.52771e-05
2.57483e-08
4.52784e-05
2.80268e-08
4.52802e-05
3.00148e-08
4.52822e-05
3.16521e-08
4.52844e-05
3.24547e-08
4.52868e-05
3.30974e-08
4.52894e-05
3.31728e-08
4.52921e-05
3.30233e-08
4.52949e-05
3.24473e-08
4.52977e-05
3.16528e-08
4.53006e-05
3.06893e-08
4.53035e-05
2.95379e-08
2.84004e-08
4.53061e-05
4.88981e-05
3.53151e-09
4.88969e-05
9.75444e-09
4.88955e-05
1.41158e-08
4.88944e-05
1.68096e-08
4.88937e-05
1.89567e-08
4.88936e-05
2.07471e-08
4.88942e-05
2.26169e-08
4.88953e-05
2.45849e-08
4.8897e-05
2.63749e-08
4.88991e-05
2.79087e-08
4.89015e-05
2.92562e-08
4.89041e-05
2.98779e-08
4.89068e-05
3.03216e-08
4.89098e-05
3.02551e-08
4.89128e-05
3.00015e-08
4.89158e-05
2.93873e-08
4.89189e-05
2.85672e-08
4.8922e-05
2.76165e-08
4.8925e-05
2.65451e-08
2.54676e-08
4.89279e-05
5.28024e-05
3.85572e-09
5.28016e-05
1.05336e-08
5.28007e-05
1.50497e-08
5.28e-05
1.74613e-08
5.27998e-05
1.91615e-08
5.28002e-05
2.03671e-08
5.28012e-05
2.16402e-08
5.28027e-05
2.30402e-08
5.28046e-05
2.44953e-08
5.2807e-05
2.55523e-08
5.28097e-05
2.65507e-08
5.28126e-05
2.69614e-08
5.28156e-05
2.7262e-08
5.28188e-05
2.70964e-08
5.28221e-05
2.67276e-08
5.28253e-05
2.61122e-08
5.28286e-05
2.5261e-08
5.28319e-05
2.43514e-08
5.28351e-05
2.3341e-08
2.23578e-08
5.28382e-05
5.70184e-05
3.97452e-09
5.70182e-05
1.07375e-08
5.70179e-05
1.53364e-08
5.70177e-05
1.76478e-08
5.7018e-05
1.88652e-08
5.70188e-05
1.95597e-08
5.70202e-05
2.02865e-08
5.70221e-05
2.11091e-08
5.70245e-05
2.21202e-08
5.70272e-05
2.2843e-08
5.703e-05
2.37091e-08
5.7033e-05
2.39686e-08
5.70363e-05
2.40171e-08
5.70396e-05
2.38238e-08
5.7043e-05
2.33237e-08
5.70464e-05
2.26518e-08
5.70498e-05
2.18416e-08
5.70532e-05
2.09655e-08
5.70566e-05
1.99881e-08
1.89414e-08
5.706e-05
6.15711e-05
3.82289e-09
6.15716e-05
1.0175e-08
6.15724e-05
1.46118e-08
6.15731e-05
1.68946e-08
6.15738e-05
1.81744e-08
6.15748e-05
1.86164e-08
6.15762e-05
1.88511e-08
6.15783e-05
1.89659e-08
6.15809e-05
1.95726e-08
6.15839e-05
1.97738e-08
6.15875e-05
2.01408e-08
6.15909e-05
2.06105e-08
6.15944e-05
2.04751e-08
6.1598e-05
2.02127e-08
6.16016e-05
1.97108e-08
6.16052e-05
1.90769e-08
6.16087e-05
1.83773e-08
6.16122e-05
1.74746e-08
6.16155e-05
1.66796e-08
1.57287e-08
6.16187e-05
6.64873e-05
3.35172e-09
6.64888e-05
8.59711e-09
6.64908e-05
1.26458e-08
6.6493e-05
1.47432e-08
6.64951e-05
1.60632e-08
6.64972e-05
1.64973e-08
6.6499e-05
1.70713e-08
6.65009e-05
1.70867e-08
6.65029e-05
1.75337e-08
6.6505e-05
1.77181e-08
6.65075e-05
1.75641e-08
6.65106e-05
1.75842e-08
6.65137e-05
1.73312e-08
6.65172e-05
1.67139e-08
6.65207e-05
1.62007e-08
6.65245e-05
1.53054e-08
6.65283e-05
1.46047e-08
6.65322e-05
1.35606e-08
6.65361e-05
1.27713e-08
1.20096e-08
6.65398e-05
7.17959e-05
2.65986e-09
7.1798e-05
6.45384e-09
7.1801e-05
9.67777e-09
7.18044e-05
1.13415e-08
7.18078e-05
1.26461e-08
7.18112e-05
1.30885e-08
7.18144e-05
1.38314e-08
7.18176e-05
1.39554e-08
7.18207e-05
1.43856e-08
7.18237e-05
1.47686e-08
7.18265e-05
1.47458e-08
7.18294e-05
1.46416e-08
7.18322e-05
1.4602e-08
7.18349e-05
1.3919e-08
7.18378e-05
1.33789e-08
7.18409e-05
1.21821e-08
7.18444e-05
1.11455e-08
7.18479e-05
1.00354e-08
7.18516e-05
9.04166e-09
7.99415e-09
7.18556e-05
7.75288e-05
7.7532e-05
7.75363e-05
7.75413e-05
7.75466e-05
7.75519e-05
7.75574e-05
7.75629e-05
7.75685e-05
7.75742e-05
7.75798e-05
7.75853e-05
7.75907e-05
7.75956e-05
7.76002e-05
7.76041e-05
7.7607e-05
7.76093e-05
7.76112e-05
7.76128e-05
3.77477e-06
6.74264e-08
3.6802e-06
9.45694e-08
3.58043e-06
9.97698e-08
3.48227e-06
9.81664e-08
3.3843e-06
9.79704e-08
3.28505e-06
9.92507e-08
3.18397e-06
1.0108e-07
3.08101e-06
1.02959e-07
2.97623e-06
1.04776e-07
2.86964e-06
1.06587e-07
2.76122e-06
1.08421e-07
2.65096e-06
1.10267e-07
2.53883e-06
1.12128e-07
2.4248e-06
1.14025e-07
2.30894e-06
1.15865e-07
2.19141e-06
1.17527e-07
2.07229e-06
1.19117e-07
1.95191e-06
1.20386e-07
1.83081e-06
1.211e-07
1.70944e-06
1.21366e-07
1.58836e-06
1.21087e-07
1.46882e-06
1.19532e-07
1.35317e-06
1.15654e-07
1.24389e-06
1.09281e-07
1.14424e-06
9.96437e-08
1.05785e-06
8.63982e-08
9.87826e-07
7.0021e-08
9.35364e-07
5.24617e-08
8.98497e-07
3.6867e-08
8.7315e-07
2.53476e-08
8.55367e-07
1.77829e-08
8.42286e-07
1.30811e-08
8.31865e-07
1.04203e-08
8.22849e-07
9.01673e-09
8.14385e-07
8.4633e-09
8.05885e-07
8.49975e-09
7.97008e-07
8.87727e-09
7.87625e-07
9.38295e-09
7.77756e-07
9.86943e-09
7.67447e-07
1.03084e-08
7.56836e-07
1.06117e-08
7.46008e-07
1.08275e-08
7.35095e-07
1.09132e-08
7.24157e-07
1.09384e-08
7.13196e-07
1.09606e-08
7.02335e-07
1.08607e-08
6.91542e-07
1.07936e-08
6.80874e-07
1.06681e-08
6.70467e-07
1.04068e-08
6.60274e-07
1.01933e-08
6.5038e-07
9.89319e-09
6.40727e-07
9.65356e-09
6.31323e-07
9.40409e-09
6.22195e-07
9.12754e-09
6.13222e-07
8.97353e-09
6.04515e-07
8.70671e-09
5.96046e-07
8.46928e-09
5.87831e-07
8.21446e-09
5.79945e-07
7.88669e-09
5.72274e-07
7.67077e-09
5.64861e-07
7.41327e-09
5.57664e-07
7.19687e-09
5.50647e-07
7.01702e-09
5.43898e-07
6.74906e-09
5.37283e-07
6.61456e-09
5.30929e-07
6.35352e-09
5.2488e-07
6.04961e-09
5.19028e-07
5.8514e-09
5.13353e-07
5.67584e-09
5.07845e-07
5.50725e-09
5.02649e-07
5.19603e-09
4.97657e-07
4.9921e-09
4.92802e-07
4.855e-09
4.88324e-07
4.47822e-09
4.83998e-07
4.32644e-09
4.79716e-07
4.28187e-09
4.75829e-07
3.88706e-09
4.72171e-07
3.65772e-09
4.68583e-07
3.58798e-09
4.65395e-07
3.18763e-09
4.62424e-07
2.97125e-09
4.59411e-07
3.01268e-09
4.56646e-07
2.76583e-09
4.54343e-07
2.30227e-09
4.52111e-07
2.23209e-09
4.49862e-07
2.24928e-09
4.47888e-07
1.97383e-09
4.46227e-07
1.66072e-09
4.44592e-07
1.63586e-09
4.43063e-07
1.52847e-09
4.41728e-07
1.33518e-09
4.40549e-07
1.1793e-09
4.39415e-07
1.13389e-09
4.38433e-07
9.81409e-10
4.37554e-07
8.79583e-10
4.36743e-07
8.1032e-10
4.35978e-07
7.65694e-10
4.3533e-07
6.47475e-10
4.34595e-07
7.351e-10
1.05935e-09
4.16451e-06
6.18726e-08
4.16841e-06
9.06726e-08
4.16295e-06
1.05225e-07
4.15313e-06
1.07995e-07
4.14234e-06
1.08756e-07
4.13035e-06
1.11238e-07
4.11609e-06
1.15341e-07
4.09899e-06
1.20059e-07
4.07891e-06
1.24856e-07
4.05579e-06
1.29713e-07
4.02951e-06
1.34698e-07
3.99993e-06
1.3984e-07
3.96689e-06
1.45174e-07
3.93021e-06
1.50708e-07
3.8897e-06
1.56375e-07
3.84527e-06
1.61956e-07
3.79679e-06
1.676e-07
3.74409e-06
1.73083e-07
3.68724e-06
1.7795e-07
3.62631e-06
1.82292e-07
3.56132e-06
1.86077e-07
3.49259e-06
1.8826e-07
3.42112e-06
1.8713e-07
3.34801e-06
1.82393e-07
3.2746e-06
1.73048e-07
3.20271e-06
1.58293e-07
3.13452e-06
1.38207e-07
3.07149e-06
1.1549e-07
3.01449e-06
9.3873e-08
2.96314e-06
7.66891e-08
2.91584e-06
6.50906e-08
2.87121e-06
5.77103e-08
2.82834e-06
5.32843e-08
2.78654e-06
5.08166e-08
2.74566e-06
4.93507e-08
2.7054e-06
4.87573e-08
2.66557e-06
4.8708e-08
2.62605e-06
4.8903e-08
2.58683e-06
4.90853e-08
2.54788e-06
4.92648e-08
2.50927e-06
4.92186e-08
2.47104e-06
4.90571e-08
2.4332e-06
4.87527e-08
2.39593e-06
4.82108e-08
2.35918e-06
4.77043e-08
2.32297e-06
4.70699e-08
2.28735e-06
4.64189e-08
2.25229e-06
4.57317e-08
2.21795e-06
4.47433e-08
2.18439e-06
4.37469e-08
2.15162e-06
4.26709e-08
2.11965e-06
4.16192e-08
2.0885e-06
4.05563e-08
2.05813e-06
3.94967e-08
2.02851e-06
3.85912e-08
1.99966e-06
3.75611e-08
1.97161e-06
3.65157e-08
1.94443e-06
3.53991e-08
1.91801e-06
3.43011e-08
1.89237e-06
3.33122e-08
1.86759e-06
3.21902e-08
1.84351e-06
3.12765e-08
1.82006e-06
3.04715e-08
1.79732e-06
2.94886e-08
1.77523e-06
2.87065e-08
1.75389e-06
2.76938e-08
1.73328e-06
2.6659e-08
1.71333e-06
2.57977e-08
1.69402e-06
2.49929e-08
1.67529e-06
2.42376e-08
1.65727e-06
2.3212e-08
1.64e-06
2.22625e-08
1.62341e-06
2.14438e-08
1.60756e-06
2.03291e-08
1.59227e-06
1.962e-08
1.57756e-06
1.89839e-08
1.56371e-06
1.77453e-08
1.55058e-06
1.67814e-08
1.53809e-06
1.60829e-08
1.52638e-06
1.48904e-08
1.51527e-06
1.40836e-08
1.50473e-06
1.35567e-08
1.49496e-06
1.25308e-08
1.48601e-06
1.12503e-08
1.47751e-06
1.07401e-08
1.46953e-06
1.02266e-08
1.46224e-06
9.2622e-09
1.45564e-06
8.25939e-09
1.44942e-06
7.85963e-09
1.44374e-06
7.20591e-09
1.43854e-06
6.54048e-09
1.43387e-06
5.84624e-09
1.4295e-06
5.50538e-09
1.42566e-06
4.82011e-09
1.42207e-06
4.46486e-09
1.41893e-06
3.95427e-09
1.41596e-06
3.73939e-09
1.41342e-06
3.18426e-09
1.41088e-06
3.27111e-09
3.72927e-09
4.49686e-06
5.99768e-08
4.50296e-06
8.45728e-08
4.50653e-06
1.01653e-07
4.50607e-06
1.08459e-07
4.50459e-06
1.10231e-07
4.50395e-06
1.11878e-07
4.50391e-06
1.15384e-07
4.50378e-06
1.20195e-07
4.50308e-06
1.25554e-07
4.50166e-06
1.31129e-07
4.49946e-06
1.36901e-07
4.49639e-06
1.42905e-07
4.49235e-06
1.49223e-07
4.48717e-06
1.5588e-07
4.48073e-06
1.62823e-07
4.47286e-06
1.69825e-07
4.46348e-06
1.76973e-07
4.45235e-06
1.84217e-07
4.43938e-06
1.90918e-07
4.42451e-06
1.97164e-07
4.40766e-06
2.02927e-07
4.38874e-06
2.07181e-07
4.36771e-06
2.08152e-07
4.34488e-06
2.05228e-07
4.32027e-06
1.97659e-07
4.29416e-06
1.84402e-07
4.26705e-06
1.65321e-07
4.23969e-06
1.42847e-07
4.21297e-06
1.20593e-07
4.18758e-06
1.0208e-07
4.16318e-06
8.9487e-08
4.13913e-06
8.17607e-08
4.11501e-06
7.74072e-08
4.09051e-06
7.53161e-08
4.06557e-06
7.42948e-08
4.04013e-06
7.41895e-08
4.01418e-06
7.46567e-08
3.98766e-06
7.54322e-08
3.9605e-06
7.62439e-08
3.93273e-06
7.70317e-08
3.90433e-06
7.76212e-08
3.87533e-06
7.80533e-08
3.84577e-06
7.83176e-08
3.81564e-06
7.83342e-08
3.78506e-06
7.82858e-08
3.75399e-06
7.81397e-08
3.72244e-06
7.79701e-08
3.69051e-06
7.76626e-08
3.65821e-06
7.70415e-08
3.62569e-06
7.62668e-08
3.59294e-06
7.54179e-08
3.55997e-06
7.45912e-08
3.52695e-06
7.35774e-08
3.49379e-06
7.26594e-08
3.46057e-06
7.18103e-08
3.42735e-06
7.07778e-08
3.3941e-06
6.97651e-08
3.36101e-06
6.84952e-08
3.328e-06
6.73099e-08
3.29514e-06
6.61746e-08
3.26258e-06
6.47412e-08
3.23021e-06
6.3651e-08
3.19809e-06
6.25934e-08
3.16628e-06
6.12958e-08
3.13469e-06
6.02986e-08
3.10359e-06
5.87974e-08
3.073e-06
5.72397e-08
3.04277e-06
5.60367e-08
3.01302e-06
5.47372e-08
2.9839e-06
5.33605e-08
2.95525e-06
5.1861e-08
2.92729e-06
5.02245e-08
2.90019e-06
4.85422e-08
2.87374e-06
4.67764e-08
2.84789e-06
4.5474e-08
2.82296e-06
4.39098e-08
2.79887e-06
4.18369e-08
2.77559e-06
4.00648e-08
2.75337e-06
3.82964e-08
2.73222e-06
3.60421e-08
2.71168e-06
3.46271e-08
2.69211e-06
3.31262e-08
2.67379e-06
3.08535e-08
2.65652e-06
2.85178e-08
2.63989e-06
2.73685e-08
2.62433e-06
2.5791e-08
2.6098e-06
2.37923e-08
2.59629e-06
2.17695e-08
2.58347e-06
2.06767e-08
2.57171e-06
1.89687e-08
2.56066e-06
1.75886e-08
2.55059e-06
1.59126e-08
2.54108e-06
1.50143e-08
2.53258e-06
1.33238e-08
2.52451e-06
1.25361e-08
2.51734e-06
1.11175e-08
2.51053e-06
1.05525e-08
2.5046e-06
9.11943e-09
2.49879e-06
9.07798e-09
9.04519e-09
4.85755e-06
5.96131e-08
4.86217e-06
7.99562e-08
4.86684e-06
9.69787e-08
4.8682e-06
1.07097e-07
4.86757e-06
1.1086e-07
4.86739e-06
1.1206e-07
4.86797e-06
1.14805e-07
4.86925e-06
1.1891e-07
4.87074e-06
1.24066e-07
4.87212e-06
1.29746e-07
4.87334e-06
1.35682e-07
4.87444e-06
1.41807e-07
4.87544e-06
1.48218e-07
4.87632e-06
1.55003e-07
4.87706e-06
1.62087e-07
4.8776e-06
1.69282e-07
4.878e-06
1.76572e-07
4.87814e-06
1.84079e-07
4.87801e-06
1.91048e-07
4.87765e-06
1.97527e-07
4.87708e-06
2.03497e-07
4.8762e-06
2.08061e-07
4.87476e-06
2.09586e-07
4.87265e-06
2.07345e-07
4.86961e-06
2.00692e-07
4.86526e-06
1.88751e-07
4.85927e-06
1.71311e-07
4.85184e-06
1.50281e-07
4.8435e-06
1.28934e-07
4.83504e-06
1.10534e-07
4.82685e-06
9.76763e-08
4.81865e-06
8.9963e-08
4.81027e-06
8.57934e-08
4.80152e-06
8.40603e-08
4.79233e-06
8.34878e-08
4.78277e-06
8.37513e-08
4.77286e-06
8.45609e-08
4.76261e-06
8.56893e-08
4.75192e-06
8.69304e-08
4.7408e-06
8.81539e-08
4.72919e-06
8.92251e-08
4.71705e-06
9.01978e-08
4.70438e-06
9.09912e-08
4.69107e-06
9.16354e-08
4.67719e-06
9.21683e-08
4.66272e-06
9.26124e-08
4.64758e-06
9.31076e-08
4.6319e-06
9.33482e-08
4.61558e-06
9.33579e-08
4.5987e-06
9.3149e-08
4.58128e-06
9.28347e-08
4.56322e-06
9.26471e-08
4.5447e-06
9.21024e-08
4.52558e-06
9.17802e-08
4.5059e-06
9.14891e-08
4.48572e-06
9.09622e-08
4.46494e-06
9.054e-08
4.44377e-06
8.96643e-08
4.42213e-06
8.89478e-08
4.40003e-06
8.82804e-08
4.37756e-06
8.72129e-08
4.3546e-06
8.66071e-08
4.33125e-06
8.59421e-08
4.30752e-06
8.50272e-08
4.2834e-06
8.44201e-08
4.25905e-06
8.31436e-08
4.2345e-06
8.17951e-08
4.20972e-06
8.08083e-08
4.18467e-06
7.97951e-08
4.15955e-06
7.84797e-08
4.13433e-06
7.70829e-08
4.10898e-06
7.55655e-08
4.0838e-06
7.37259e-08
4.05877e-06
7.18107e-08
4.0336e-06
7.06455e-08
4.00879e-06
6.87191e-08
3.98431e-06
6.63092e-08
3.96005e-06
6.43287e-08
3.93623e-06
6.21176e-08
3.91313e-06
5.91412e-08
3.89021e-06
5.75438e-08
3.86781e-06
5.55279e-08
3.84624e-06
5.24277e-08
3.82552e-06
4.92389e-08
3.80507e-06
4.78178e-08
3.78549e-06
4.53629e-08
3.76673e-06
4.25589e-08
3.7489e-06
3.95994e-08
3.73155e-06
3.80283e-08
3.71531e-06
3.52018e-08
3.69968e-06
3.3225e-08
3.68512e-06
3.04651e-08
3.67106e-06
2.9079e-08
3.6582e-06
2.61851e-08
3.64573e-06
2.50084e-08
3.63442e-06
2.24203e-08
3.62345e-06
2.15258e-08
3.61367e-06
1.8895e-08
3.60401e-06
1.87409e-08
1.76415e-08
5.24726e-06
5.95877e-08
5.25071e-06
7.65029e-08
5.25486e-06
9.28287e-08
5.25742e-06
1.04539e-07
5.2579e-06
1.10383e-07
5.2577e-06
1.12258e-07
5.25796e-06
1.14544e-07
5.25908e-06
1.17793e-07
5.26074e-06
1.22405e-07
5.26248e-06
1.28002e-07
5.26413e-06
1.34031e-07
5.26574e-06
1.40197e-07
5.26737e-06
1.46589e-07
5.26905e-06
1.53331e-07
5.27079e-06
1.60348e-07
5.27259e-06
1.67477e-07
5.27454e-06
1.74619e-07
5.27664e-06
1.81986e-07
5.27886e-06
1.88821e-07
5.28136e-06
1.95035e-07
5.28419e-06
2.00667e-07
5.28728e-06
2.04962e-07
5.29042e-06
2.06452e-07
5.29343e-06
2.04334e-07
5.29603e-06
1.98095e-07
5.29772e-06
1.87052e-07