/*--------------------------------*- C++ -*----------------------------------*\
| =========                 |                                                 |
| \\      /  F ield         | OpenFOAM: The Open Source CFD Toolbox           |
|  \\    /   O peration     | Version:  v1906                                 |
|   \\  /    A nd           | Web:      www.OpenFOAM.com                      |
|    \\/     M anipulation  |                                                 |
\*---------------------------------------------------------------------------*/
FoamFile
{
    version     2.0;
    format      ascii;
    class       volVectorField;
    location    "1";
    object      U;
}
// * * * * * * * * * * * * * * * * * * * * * * * * * * * * * * * * * * * * * //

dimensions      [0 1 -1 0 0 0 0];


internalField   nonuniform List<vector> 
4800
(
(0.960523 -2.03205e-05 0)
(1.03889 -0.000184821 0)
(0.964334 6.15894e-05 0)
(1.03497 -0.000252228 0)
(0.967615 0.000246843 0)
(1.03187 -0.000206809 0)
(0.971159 0.000182085 0)
(1.0288 -0.000311378 0)
(0.974379 6.82136e-05 0)
(1.02565 -0.00054192 0)
(0.976938 -5.46242e-05 0)
(1.02248 -0.000601412 0)
(0.979369 -5.34e-05 0)
(1.01953 -0.000644268 0)
(0.981304 -8.50262e-05 0)
(1.01662 -0.000605135 0)
(0.982933 -9.25368e-05 0)
(1.01357 -0.000603539 0)
(0.983699 0.000150478 0)
(1.01026 0.00057809 0)
(0.982887 -8.81858e-05 0)
(1.01459 -0.000163055 0)
(0.987025 4.76051e-05 0)
(1.01105 -0.000224734 0)
(0.990159 0.000226397 0)
(1.00849 -0.000222307 0)
(0.993073 0.000180351 0)
(1.00636 -0.000355835 0)
(0.995308 6.10784e-05 0)
(1.00447 -0.000602756 0)
(0.996613 -6.5992e-05 0)
(1.00279 -0.000677695 0)
(0.997579 -7.87469e-05 0)
(1.00145 -0.000725089 0)
(0.997968 -0.000105259 0)
(1.00019 -0.000671158 0)
(0.998014 -6.87098e-06 0)
(0.998817 -0.000366421 0)
(0.997476 0.000890327 0)
(0.997329 0.00184544 0)
(0.996051 1.67061e-06 0)
(1.00266 -0.000241094 0)
(0.997546 0.000117101 0)
(1.00163 -0.000273683 0)
(0.998492 0.000238312 0)
(1.00115 -0.000229711 0)
(0.999366 0.000146362 0)
(1.00088 -0.000295311 0)
(0.999955 1.1184e-05 0)
(1.0006 -0.000412475 0)
(0.999976 -0.000190715 0)
(1.00023 -0.000432732 0)
(0.99991 -0.000246746 0)
(0.999884 -0.000480758 0)
(0.999524 -0.000298737 0)
(0.999377 -0.000356621 0)
(0.999036 -9.65759e-05 0)
(0.998647 0.000297631 0)
(0.998225 0.00123456 0)
(0.997758 0.00229194 0)
(0.999497 -2.0527e-05 0)
(1.00024 -0.000244285 0)
(0.999782 9.05466e-05 0)
(1.0002 -0.00025135 0)
(1.00003 0.000199958 0)
(1.00035 -0.000193289 0)
(1.00031 7.2716e-05 0)
(1.00046 -0.00021915 0)
(1.00055 -0.000119362 0)
(1.00046 -0.000345276 0)
(1.00041 -0.000305303 0)
(1.00028 -0.000404339 0)
(1.00025 -0.000369773 0)
(1.00005 -0.000465826 0)
(0.999833 -0.00038203 0)
(0.999616 -0.000247963 0)
(0.999365 -8.10787e-06 0)
(0.999026 0.000638523 0)
(0.998676 0.00149746 0)
(0.998243 0.00243082 0)
(1.00002 4.05683e-06 0)
(0.999983 -0.000235593 0)
(1.00008 6.97284e-05 0)
(1.00011 -0.00021239 0)
(1.00027 0.000128511 0)
(1.00037 -0.000123289 0)
(1.00046 -2.1164e-05 0)
(1.0005 -0.00014286 0)
(1.00065 -0.000177586 0)
(1.00051 -0.00032144 0)
(1.0005 -0.000325706 0)
(1.00037 -0.000428777 0)
(1.00037 -0.000390815 0)
(1.00017 -0.000448908 0)
(0.999989 -0.000326788 0)
(0.999792 -0.000123521 0)
(0.999609 0.000350296 0)
(0.999322 0.00109174 0)
(0.999001 0.00180505 0)
(0.998584 0.0026152 0)
(1.00008 -1.48917e-05 0)
(0.999977 -0.0002129 0)
(1.00011 3.80072e-06 0)
(1.00011 -0.000155072 0)
(1.00031 4.14057e-05 0)
(1.00038 -4.65189e-05 0)
(1.0005 -0.000110681 0)
(1.00052 -0.000111417 0)
(1.00065 -0.000231825 0)
(1.00052 -0.000331514 0)
(1.00051 -0.000401309 0)
(1.00039 -0.000432115 0)
(1.0004 -0.00044375 0)
(1.00022 -0.000414435 0)
(1.00007 -0.000253877 0)
(0.999922 0.00015047 0)
(0.999806 0.000773615 0)
(0.999519 0.00139175 0)
(0.999224 0.00197452 0)
(0.998832 0.00267997 0)
(1.00007 -6.3483e-06 0)
(0.999988 -0.000190253 0)
(1.00012 -4.32887e-05 0)
(1.00012 -0.000113032 0)
(1.00032 -1.39907e-05 0)
(1.00038 -3.16881e-05 0)
(1.0005 -0.000103303 0)
(1.00054 -0.000164331 0)
(1.00065 -0.000248499 0)
(1.00053 -0.00035274 0)
(1.00051 -0.000421065 0)
(1.0004 -0.000438084 0)
(1.00041 -0.000438753 0)
(1.00026 -0.000319933 0)
(1.00016 5.20667e-06 0)
(1.00007 0.000578701 0)
(0.99995 0.00105726 0)
(0.999671 0.00155049 0)
(0.999402 0.00207242 0)
(0.999049 0.00270664 0)
(1.00006 -1.7893e-05 0)
(0.999999 -0.000145903 0)
(1.00012 -0.000118726 0)
(1.00013 -8.13459e-05 0)
(1.00032 -4.24537e-05 0)
(1.00039 -7.06332e-05 0)
(1.00049 -9.34406e-05 0)
(1.00055 -0.000202434 0)
(1.00064 -0.000307528 0)
(1.00053 -0.000392288 0)
(1.0005 -0.000450403 0)
(1.00041 -0.000435843 0)
(1.00043 -0.000350704 0)
(1.00033 -0.000116211 0)
(1.00027 0.000390837 0)
(1.00018 0.000802711 0)
(1.00006 0.0011569 0)
(0.999812 0.00159453 0)
(0.999572 0.00210914 0)
(0.999263 0.00270463 0)
(1.00006 -1.9561e-05 0)
(1.00001 -0.00011757 0)
(1.00012 -0.000143991 0)
(1.00015 -0.000103716 0)
(1.00032 -2.67274e-05 0)
(1.0004 -0.0001302 0)
(1.00048 -0.0001237 0)
(1.00054 -0.000221858 0)
(1.00062 -0.000350169 0)
(1.00053 -0.00042621 0)
(1.00051 -0.000449621 0)
(1.00044 -0.000371472 0)
(1.00048 -0.000146262 0)
(1.00043 0.000258914 0)
(1.00036 0.000616344 0)
(1.00027 0.000905618 0)
(1.00016 0.00122171 0)
(0.999961 0.00165566 0)
(0.999751 0.00217083 0)
(0.999479 0.0027398 0)
(1.00005 -1.94585e-05 0)
(1.00001 -0.000102284 0)
(1.00012 -0.000128924 0)
(1.00016 -0.00016704 0)
(1.00032 -2.85326e-05 0)
(1.0004 -0.000147588 0)
(1.00047 -0.000189179 0)
(1.00053 -0.000268309 0)
(1.00061 -0.000349526 0)
(1.00053 -0.000451923 0)
(1.00052 -0.000397187 0)
(1.00049 -0.000217326 0)
(1.00056 0.000166108 0)
(1.00051 0.000461319 0)
(1.00043 0.000711512 0)
(1.00035 0.000983288 0)
(1.00028 0.00130275 0)
(1.00012 0.00173324 0)
(0.999938 0.00223621 0)
(0.999695 0.00277554 0)
(1.00005 -3.0969e-05 0)
(1.00001 -7.139e-05 0)
(1.00011 -0.00012382 0)
(1.00017 -0.000202523 0)
(1.00032 -0.000101974 0)
(1.00039 -0.000124851 0)
(1.00047 -0.000248013 0)
(1.00053 -0.000311439 0)
(1.0006 -0.000393152 0)
(1.00054 -0.000373844 0)
(1.00056 -0.000284598 0)
(1.00056 3.93028e-05 0)
(1.00063 0.000324115 0)
(1.00057 0.000534314 0)
(1.0005 0.000768714 0)
(1.00044 0.00105704 0)
(1.0004 0.00138688 0)
(1.00028 0.00180698 0)
(1.00013 0.00228986 0)
(0.999911 0.00279884 0)
(1.00004 -2.19558e-05 0)
(1.00001 -8.41384e-05 0)
(1.00011 -9.48085e-05 0)
(1.00017 -0.000218665 0)
(1.00033 -0.000182871 0)
(1.00039 -0.000177589 0)
(1.00045 -0.000235508 0)
(1.00052 -0.000351789 0)
(1.00061 -0.000383073 0)
(1.00056 -0.000259452 0)
(1.00061 -2.399e-05 0)
(1.00063 0.00018824 0)
(1.00069 0.000393003 0)
(1.00063 0.000597661 0)
(1.00058 0.000840809 0)
(1.00055 0.00113893 0)
(1.00053 0.00147612 0)
(1.00045 0.00188013 0)
(1.00033 0.00233712 0)
(1.00013 0.00281299 0)
(1.00004 -3.76174e-05 0)
(1.00001 -6.48456e-05 0)
(1.0001 -0.000110496 0)
(1.00017 -0.000179305 0)
(1.00033 -0.000271332 0)
(1.00039 -0.000268999 0)
(1.00044 -0.000255733 0)
(1.00051 -0.000278837 0)
(1.00062 -0.000330606 0)
(1.00062 -0.000115035 0)
(1.00066 0.000132095 0)
(1.00067 0.000303986 0)
(1.00074 0.000476982 0)
(1.0007 0.00068556 0)
(1.00068 0.000933868 0)
(1.00066 0.00123373 0)
(1.00067 0.00156772 0)
(1.00062 0.00195656 0)
(1.00053 0.00238464 0)
(1.00034 0.00282586 0)
(1.00004 -2.75167e-05 0)
(1.00001 -8.41276e-05 0)
(1.0001 -0.000120081 0)
(1.00016 -0.000165809 0)
(1.00032 -0.00027729 0)
(1.00039 -0.000362855 0)
(1.00045 -0.000308176 0)
(1.00051 -0.000179201 0)
(1.00065 -0.000149568 0)
(1.00067 -1.64473e-05 0)
(1.00072 0.000189613 0)
(1.00072 0.00037509 0)
(1.0008 0.00054751 0)
(1.00078 0.000765189 0)
(1.00077 0.00101643 0)
(1.00078 0.0013129 0)
(1.00082 0.00164136 0)
(1.0008 0.00201708 0)
(1.00073 0.00241988 0)
(1.00056 0.00282752 0)
(1.00004 -4.11817e-05 0)
(1.00001 -6.33966e-05 0)
(1.0001 -0.000157227 0)
(1.00015 -0.000181797 0)
(1.00031 -0.000244742 0)
(1.00039 -0.000374017 0)
(1.00048 -0.000354862 0)
(1.00055 -0.000130621 0)
(1.00067 2.16544e-05 0)
(1.0007 0.000130758 0)
(1.00077 0.000269964 0)
(1.00078 0.000434755 0)
(1.00087 0.000606987 0)
(1.00087 0.00082977 0)
(1.00088 0.00108678 0)
(1.00091 0.00137835 0)
(1.00097 0.00169941 0)
(1.00098 0.0020589 0)
(1.00093 0.00243702 0)
(1.00078 0.00281361 0)
(1.00004 -3.92147e-05 0)
(1 -7.79589e-05 0)
(1.00009 -0.000158592 0)
(1.00015 -0.000238431 0)
(1.0003 -0.00022183 0)
(1.00038 -0.000300807 0)
(1.00051 -0.000315649 0)
(1.0006 -0.000138654 0)
(1.00072 7.99157e-05 0)
(1.00074 0.00024515 0)
(1.00081 0.000381725 0)
(1.00083 0.00052331 0)
(1.00094 0.000686165 0)
(1.00096 0.000906531 0)
(1.00099 0.00116663 0)
(1.00104 0.00145181 0)
(1.00113 0.00175832 0)
(1.00116 0.0020974 0)
(1.00114 0.00245034 0)
(1.00099 0.00280077 0)
(1.00004 -3.76096e-05 0)
(1 -0.000110865 0)
(1.00009 -0.000136579 0)
(1.00015 -0.000273749 0)
(1.0003 -0.000240393 0)
(1.00038 -0.00020148 0)
(1.00053 -0.000205652 0)
(1.00064 -8.63976e-05 0)
(1.00077 8.47232e-05 0)
(1.0008 0.00028422 0)
(1.00086 0.000459125 0)
(1.00089 0.00061062 0)
(1.00101 0.000764624 0)
(1.00106 0.000979206 0)
(1.00111 0.00123901 0)
(1.00118 0.00151993 0)
(1.00129 0.00180924 0)
(1.00135 0.0021253 0)
(1.00134 0.00245411 0)
(1.0012 0.00278057 0)
(1.00004 -3.76495e-05 0)
(1 -0.00014066 0)
(1.00008 -0.000143858 0)
(1.00015 -0.000244899 0)
(1.00032 -0.00027199 0)
(1.0004 -0.000147265 0)
(1.00054 -7.86226e-05 0)
(1.00068 5.98662e-06 0)
(1.00083 0.000120792 0)
(1.00087 0.000298801 0)
(1.00093 0.000497219 0)
(1.00095 0.000682573 0)
(1.00109 0.000842989 0)
(1.00117 0.00105075 0)
(1.00124 0.00130322 0)
(1.00133 0.00157736 0)
(1.00146 0.00185176 0)
(1.00154 0.0021449 0)
(1.00155 0.00245059 0)
(1.00142 0.00275375 0)
(1.00004 -4.15976e-05 0)
(1.00001 -0.000151578 0)
(1.00009 -0.000176796 0)
(1.00015 -0.000209106 0)
(1.00034 -0.000249499 0)
(1.00044 -0.000137539 0)
(1.00058 9.87376e-06 0)
(1.00071 0.000126555 0)
(1.00087 0.00021091 0)
(1.00093 0.00033996 0)
(1.00101 0.000525478 0)
(1.00104 0.000729941 0)
(1.00118 0.000906512 0)
(1.00128 0.00111088 0)
(1.00139 0.00135434 0)
(1.00149 0.00162182 0)
(1.00163 0.00188594 0)
(1.00174 0.00215935 0)
(1.00176 0.00244044 0)
(1.00164 0.00271939 0)
(1.00004 -4.54493e-05 0)
(1.00001 -0.000157124 0)
(1.0001 -0.000206006 0)
(1.00016 -0.000184532 0)
(1.00037 -0.000179073 0)
(1.00049 -9.73365e-05 0)
(1.00064 4.46446e-05 0)
(1.00076 0.00019978 0)
(1.00092 0.000302707 0)
(1.001 0.000414367 0)
(1.0011 0.000573467 0)
(1.00113 0.000775635 0)
(1.00129 0.000962748 0)
(1.00141 0.00116854 0)
(1.00153 0.00140173 0)
(1.00165 0.00165918 0)
(1.00181 0.0019119 0)
(1.00193 0.0021658 0)
(1.00198 0.00242307 0)
(1.00186 0.00267687 0)
(1.00003 -4.69539e-05 0)
(1.00001 -0.000160803 0)
(1.00011 -0.000212197 0)
(1.00019 -0.000176453 0)
(1.00039 -0.000117717 0)
(1.00053 -3.26001e-05 0)
(1.00069 8.65528e-05 0)
(1.00082 0.000236695 0)
(1.00098 0.000365026 0)
(1.00106 0.000482647 0)
(1.00119 0.000627233 0)
(1.00124 0.000819071 0)
(1.0014 0.00100392 0)
(1.00154 0.00121033 0)
(1.00169 0.00143648 0)
(1.00182 0.00168035 0)
(1.00199 0.00192273 0)
(1.00213 0.00215766 0)
(1.00219 0.00239563 0)
(1.00208 0.00262537 0)
(1.00003 -4.67906e-05 0)
(1.00001 -0.00015891 0)
(1.00013 -0.000202623 0)
(1.00022 -0.000159065 0)
(1.00044 -7.73674e-05 0)
(1.00058 3.3146e-05 0)
(1.00075 0.000145702 0)
(1.00088 0.00027817 0)
(1.00104 0.000408388 0)
(1.00114 0.000541667 0)
(1.00128 0.000682714 0)
(1.00134 0.000870644 0)
(1.00152 0.00104877 0)
(1.00168 0.00124556 0)
(1.00185 0.00146604 0)
(1.002 0.00169386 0)
(1.00218 0.00192558 0)
(1.00233 0.00214225 0)
(1.0024 0.00236177 0)
(1.0023 0.00257052 0)
(1.00003 -4.37372e-05 0)
(1.00001 -0.00015217 0)
(1.00015 -0.000181672 0)
(1.00026 -0.000131242 0)
(1.00048 -4.6443e-05 0)
(1.00063 7.8172e-05 0)
(1.00081 0.000202122 0)
(1.00095 0.000326604 0)
(1.00111 0.000452886 0)
(1.00122 0.000591435 0)
(1.00138 0.000731666 0)
(1.00146 0.000915761 0)
(1.00164 0.00109435 0)
(1.00183 0.00127584 0)
(1.00202 0.00148723 0)
(1.00218 0.00170081 0)
(1.00237 0.00192082 0)
(1.00253 0.00212213 0)
(1.00261 0.00232219 0)
(1.00252 0.00251256 0)
(1.00003 -4.05084e-05 0)
(1.00002 -0.000134347 0)
(1.00018 -0.000156001 0)
(1.0003 -9.87551e-05 0)
(1.00054 -1.17138e-05 0)
(1.00069 0.000110615 0)
(1.00087 0.000244239 0)
(1.00102 0.000370983 0)
(1.00119 0.000492995 0)
(1.0013 0.000633299 0)
(1.00148 0.000773044 0)
(1.00158 0.000948944 0)
(1.00177 0.00113143 0)
(1.00197 0.00130265 0)
(1.00218 0.00149827 0)
(1.00237 0.00169711 0)
(1.00256 0.00190243 0)
(1.00272 0.00209119 0)
(1.00281 0.00227214 0)
(1.00273 0.00244598 0)
(1.00003 -3.42616e-05 0)
(1.00002 -0.000112165 0)
(1.0002 -0.000125334 0)
(1.00034 -6.25568e-05 0)
(1.00059 2.3086e-05 0)
(1.00076 0.000139259 0)
(1.00094 0.000275556 0)
(1.00109 0.000408664 0)
(1.00127 0.000529679 0)
(1.00139 0.0006684 0)
(1.00159 0.000810301 0)
(1.00171 0.000974441 0)
(1.00191 0.00115391 0)
(1.00212 0.00132203 0)
(1.00235 0.00150141 0)
(1.00255 0.00168554 0)
(1.00276 0.00187376 0)
(1.00292 0.00205123 0)
(1.00302 0.00221531 0)
(1.00294 0.00237372 0)
(1.00003 -2.77003e-05 0)
(1.00003 -8.48779e-05 0)
(1.00023 -9.04748e-05 0)
(1.00038 -2.80938e-05 0)
(1.00064 5.77575e-05 0)
(1.00082 0.000167603 0)
(1.00102 0.000301229 0)
(1.00117 0.000438286 0)
(1.00135 0.000563274 0)
(1.00149 0.00069605 0)
(1.00169 0.000836878 0)
(1.00183 0.000995546 0)
(1.00205 0.00116436 0)
(1.00227 0.00132921 0)
(1.00252 0.00149664 0)
(1.00273 0.00166558 0)
(1.00295 0.00183666 0)
(1.00311 0.00199938 0)
(1.00321 0.00214959 0)
(1.00314 0.0022919 0)
(1.00003 -1.99988e-05 0)
(1.00004 -5.62773e-05 0)
(1.00025 -5.40293e-05 0)
(1.00042 8.29715e-06 0)
(1.00069 9.3458e-05 0)
(1.00089 0.000195962 0)
(1.00109 0.00032303 0)
(1.00125 0.000457903 0)
(1.00144 0.000588047 0)
(1.00158 0.000721059 0)
(1.00181 0.000852301 0)
(1.00196 0.00100858 0)
(1.00219 0.00116896 0)
(1.00242 0.00132147 0)
(1.00268 0.00148059 0)
(1.00291 0.00163277 0)
(1.00313 0.00178952 0)
(1.0033 0.00193548 0)
(1.0034 0.00207334 0)
(1.00333 0.0022012 0)
(1.00003 -1.14775e-05 0)
(1.00004 -2.78994e-05 0)
(1.00028 -1.65608e-05 0)
(1.00046 4.38649e-05 0)
(1.00074 0.000127314 0)
(1.00095 0.000222663 0)
(1.00117 0.000343165 0)
(1.00133 0.000474431 0)
(1.00153 0.000601775 0)
(1.00168 0.000739707 0)
(1.00191 0.000863855 0)
(1.00209 0.00100594 0)
(1.00232 0.00116459 0)
(1.00256 0.0013022 0)
(1.00283 0.00145149 0)
(1.00307 0.00159063 0)
(1.00331 0.00173226 0)
(1.00348 0.00186606 0)
(1.00359 0.00198862 0)
(1.00351 0.00210583 0)
(1.00003 -2.81852e-06 0)
(1.00005 -3.01458e-07 0)
(1.00029 2.03366e-05 0)
(1.00049 7.83009e-05 0)
(1.00078 0.000159303 0)
(1.001 0.000249307 0)
(1.00124 0.000359888 0)
(1.0014 0.000486858 0)
(1.00162 0.000608827 0)
(1.00177 0.000742588 0)
(1.00202 0.000870226 0)
(1.00222 0.000994442 0)
(1.00246 0.00114464 0)
(1.0027 0.00127697 0)
(1.00298 0.0014096 0)
(1.00323 0.00154061 0)
(1.00348 0.00166382 0)
(1.00365 0.00178827 0)
(1.00376 0.00189553 0)
(1.00368 0.00200181 0)
(1.00003 5.44257e-06 0)
(1.00005 2.52405e-05 0)
(1.00031 5.53562e-05 0)
(1.00052 0.000111039 0)
(1.00082 0.000187481 0)
(1.00105 0.000272953 0)
(1.0013 0.000373687 0)
(1.00148 0.000491664 0)
(1.0017 0.000611408 0)
(1.00187 0.000735004 0)
(1.00212 0.000861428 0)
(1.00233 0.000979578 0)
(1.00259 0.00111017 0)
(1.00284 0.00124011 0)
(1.00313 0.00135723 0)
(1.00338 0.00147723 0)
(1.00363 0.00158668 0)
(1.00381 0.00169673 0)
(1.00391 0.00179543 0)
(1.00384 0.00188716 0)
(1.00003 1.34592e-05 0)
(1.00006 4.77359e-05 0)
(1.00032 8.73892e-05 0)
(1.00054 0.000141687 0)
(1.00085 0.000212649 0)
(1.00109 0.000292347 0)
(1.00136 0.000385388 0)
(1.00155 0.000491675 0)
(1.00178 0.000604443 0)
(1.00196 0.000722503 0)
(1.00222 0.000838521 0)
(1.00244 0.000953164 0)
(1.00271 0.00106881 0)
(1.00296 0.00118667 0)
(1.00326 0.00129707 0)
(1.00352 0.0014009 0)
(1.00377 0.00150264 0)
(1.00395 0.00159554 0)
(1.00406 0.00168711 0)
(1.00398 0.0017659 0)
(1.00003 2.0898e-05 0)
(1.00006 6.7881e-05 0)
(1.00033 0.000116254 0)
(1.00056 0.000169845 0)
(1.00088 0.000234912 0)
(1.00113 0.000307063 0)
(1.0014 0.000391658 0)
(1.00161 0.000488951 0)
(1.00185 0.000588801 0)
(1.00204 0.000700338 0)
(1.00231 0.00080943 0)
(1.00254 0.000912551 0)
(1.00282 0.00102077 0)
(1.00308 0.00112201 0)
(1.00338 0.001225 0)
(1.00364 0.00131525 0)
(1.0039 0.00140631 0)
(1.00408 0.00148752 0)
(1.00419 0.00156633 0)
(1.00411 0.00163745 0)
(1.00003 2.75057e-05 0)
(1.00006 8.53977e-05 0)
(1.00034 0.000140471 0)
(1.00057 0.000193653 0)
(1.0009 0.000253077 0)
(1.00116 0.000317059 0)
(1.00144 0.00039094 0)
(1.00166 0.00047949 0)
(1.00192 0.000569181 0)
(1.00212 0.00066641 0)
(1.00239 0.000770111 0)
(1.00263 0.000861641 0)
(1.00292 0.000959715 0)
(1.00319 0.00104903 0)
(1.00348 0.00113901 0)
(1.00375 0.00121993 0)
(1.00401 0.00129766 0)
(1.0042 0.00137073 0)
(1.00431 0.00143635 0)
(1.00423 0.00149958 0)
(1.00003 3.2834e-05 0)
(1.00006 0.000100155 0)
(1.00034 0.000160032 0)
(1.00057 0.000212435 0)
(1.00091 0.000265389 0)
(1.00117 0.00032169 0)
(1.00147 0.000385016 0)
(1.0017 0.000460396 0)
(1.00197 0.000542388 0)
(1.00219 0.000626689 0)
(1.00246 0.000717458 0)
(1.00271 0.000801297 0)
(1.003 0.000887126 0)
(1.00327 0.000966453 0)
(1.00358 0.00104426 0)
(1.00384 0.00111471 0)
(1.00411 0.00118113 0)
(1.00429 0.00124411 0)
(1.0044 0.00130029 0)
(1.00432 0.00135327 0)
(1.00003 3.68489e-05 0)
(1.00006 0.000110874 0)
(1.00033 0.000174521 0)
(1.00057 0.000225411 0)
(1.0009 0.000272175 0)
(1.00118 0.000318608 0)
(1.00149 0.000373623 0)
(1.00173 0.000434949 0)
(1.00201 0.00050446 0)
(1.00224 0.000578996 0)
(1.00252 0.00065681 0)
(1.00277 0.000728713 0)
(1.00307 0.000804914 0)
(1.00335 0.00087231 0)
(1.00365 0.000940759 0)
(1.00392 0.0010007 0)
(1.00419 0.00105681 0)
(1.00437 0.00110956 0)
(1.00448 0.00115727 0)
(1.00439 0.00120146 0)
(1.00003 3.9064e-05 0)
(1.00006 0.000116487 0)
(1.00033 0.000181814 0)
(1.00056 0.000231351 0)
(1.00089 0.000273248 0)
(1.00117 0.000310898 0)
(1.00149 0.000353768 0)
(1.00174 0.000405055 0)
(1.00204 0.00046094 0)
(1.00228 0.000519053 0)
(1.00256 0.000589259 0)
(1.00282 0.000647337 0)
(1.00313 0.000710884 0)
(1.00341 0.000769153 0)
(1.00371 0.00082428 0)
(1.00398 0.00087824 0)
(1.00425 0.000922424 0)
(1.00443 0.000967589 0)
(1.00454 0.00100594 0)
(1.00445 0.00104314 0)
(1.00003 3.88048e-05 0)
(1.00006 0.000114451 0)
(1.00032 0.000179484 0)
(1.00055 0.000226263 0)
(1.00087 0.000265652 0)
(1.00115 0.000298161 0)
(1.00148 0.000332201 0)
(1.00175 0.000370907 0)
(1.00204 0.00041969 0)
(1.0023 0.000459647 0)
(1.0026 0.000515096 0)
(1.00286 0.000566072 0)
(1.00317 0.00061225 0)
(1.00345 0.000661789 0)
(1.00376 0.000703215 0)
(1.00402 0.000747599 0)
(1.00429 0.000784173 0)
(1.00447 0.000817789 0)
(1.00457 0.000850961 0)
(1.00449 0.000878132 0)
(1.00003 3.59986e-05 0)
(1.00006 0.000103242 0)
(1.00031 0.000162704 0)
(1.00053 0.000205319 0)
(1.00085 0.000240493 0)
(1.00113 0.000268011 0)
(1.00146 0.000299017 0)
(1.00174 0.000324735 0)
(1.00204 0.000363864 0)
(1.0023 0.000397761 0)
(1.00262 0.000429154 0)
(1.00288 0.00047084 0)
(1.00319 0.000502639 0)
(1.00347 0.00053174 0)
(1.00378 0.000560688 0)
(1.00405 0.000581248 0)
(1.00431 0.000607132 0)
(1.0045 0.000618292 0)
(1.0046 0.000637479 0)
(1.00452 0.000645015 0)
(1.00003 3.22297e-05 0)
(1.00006 8.87213e-05 0)
(1.00031 0.000144639 0)
(1.00052 0.000185245 0)
(1.00083 0.000223111 0)
(1.00111 0.000250914 0)
(1.00144 0.000286735 0)
(1.00172 0.000313529 0)
(1.00204 0.000349841 0)
(1.0023 0.000390229 0)
(1.00261 0.000421439 0)
(1.00288 0.000456285 0)
(1.00318 0.000493987 0)
(1.00346 0.000514161 0)
(1.00376 0.00054127 0)
(1.00403 0.00054938 0)
(1.00428 0.000564578 0)
(1.00445 0.000561778 0)
(1.00455 0.00056008 0)
(1.00446 0.000546696 0)
(1.00003 1.53742e-05 0)
(1.00006 4.08137e-05 0)
(1.00031 6.98301e-05 0)
(1.00051 8.99419e-05 0)
(1.00083 0.000112514 0)
(1.00111 0.000127566 0)
(1.00145 0.000149349 0)
(1.00173 0.000165367 0)
(1.00206 0.000186452 0)
(1.00232 0.000209151 0)
(1.00264 0.000231201 0)
(1.00292 0.00024893 0)
(1.00321 0.000273738 0)
(1.00348 0.000286455 0)
(1.00377 0.000303115 0)
(1.00401 0.000308741 0)
(1.00424 0.000315987 0)
(1.00438 0.000314526 0)
(1.00445 0.000310176 0)
(1.00432 0.00029948 0)
(0.984267 0.0020852 0)
(0.960128 0.00328849 0)
(0.935818 0.0036385 0)
(0.911068 0.0036031 0)
(0.885866 0.00353002 0)
(0.86025 0.00350991 0)
(0.834295 0.00351657 0)
(0.807966 0.00351782 0)
(0.781217 0.00350272 0)
(0.753983 0.00347205 0)
(0.726279 0.00343273 0)
(0.698077 0.00338605 0)
(0.669419 0.00333523 0)
(0.640258 0.00328456 0)
(0.610612 0.00322791 0)
(0.580501 0.00316333 0)
(0.549977 0.00310046 0)
(0.519014 0.00302284 0)
(0.487852 0.00292375 0)
(0.456537 0.00282273 0)
(0.425189 0.00270959 0)
(0.393982 0.00255586 0)
(0.363442 0.00234499 0)
(0.33416 0.00206201 0)
(0.306901 0.00166423 0)
(0.282666 0.0011614 0)
(0.262441 0.000570565 0)
(0.246889 5.81008e-05 0)
(0.23584 -0.000284921 0)
(0.228217 -0.000450737 0)
(0.222834 -0.000504838 0)
(0.218913 -0.000481337 0)
(0.215905 -0.000445772 0)
(0.213386 -0.000397463 0)
(0.211151 -0.000341629 0)
(0.208968 -0.000285129 0)
(0.206735 -0.000233132 0)
(0.204374 -0.000187838 0)
(0.201899 -0.000149673 0)
(0.199289 -0.000117924 0)
(0.196598 -9.1931e-05 0)
(0.193824 -7.1512e-05 0)
(0.191027 -5.42228e-05 0)
(0.188198 -3.90764e-05 0)
(0.185383 -2.76213e-05 0)
(0.182557 -1.82986e-05 0)
(0.179771 -1.01355e-05 0)
(0.176994 -4.01643e-06 0)
(0.174283 1.10474e-06 0)
(0.171616 5.26538e-06 0)
(0.169037 8.14696e-06 0)
(0.166501 1.17969e-05 0)
(0.16406 1.40579e-05 0)
(0.161653 1.61567e-05 0)
(0.159333 1.88946e-05 0)
(0.15704 1.98933e-05 0)
(0.154835 2.11853e-05 0)
(0.152674 2.10416e-05 0)
(0.15061 2.04914e-05 0)
(0.148587 2.16973e-05 0)
(0.146662 2.14434e-05 0)
(0.144758 2.07965e-05 0)
(0.142944 2.06092e-05 0)
(0.14115 1.99464e-05 0)
(0.139443 2.00604e-05 0)
(0.137756 1.8697e-05 0)
(0.136173 1.75653e-05 0)
(0.13462 1.70363e-05 0)
(0.133153 1.59615e-05 0)
(0.131689 1.54029e-05 0)
(0.130332 1.43285e-05 0)
(0.128992 1.39051e-05 0)
(0.12775 1.3338e-05 0)
(0.126524 1.10545e-05 0)
(0.125407 1.08509e-05 0)
(0.124273 1.14443e-05 0)
(0.123251 9.49545e-06 0)
(0.122244 8.64845e-06 0)
(0.121343 8.61589e-06 0)
(0.120441 6.7054e-06 0)
(0.119674 6.31261e-06 0)
(0.118868 7.20775e-06 0)
(0.118164 5.98798e-06 0)
(0.117474 3.83315e-06 0)
(0.116923 4.17916e-06 0)
(0.116307 4.84664e-06 0)
(0.115809 3.63498e-06 0)
(0.115294 2.45825e-06 0)
(0.114917 2.83375e-06 0)
(0.114458 2.71323e-06 0)
(0.114147 2.01187e-06 0)
(0.113759 1.70147e-06 0)
(0.113532 1.76442e-06 0)
(0.113182 1.4178e-06 0)
(0.113031 1.10699e-06 0)
(0.112711 1.26182e-06 0)
(0.112628 1.10257e-06 0)
(0.112307 1.01591e-06 0)
(0.112301 1.61977e-06 0)
(0.111874 3.17236e-06 0)
(0.996794 0.00407705 0)
(0.995844 0.00590259 0)
(0.994599 0.00653192 0)
(0.992988 0.0064851 0)
(0.990907 0.00633715 0)
(0.988251 0.00629097 0)
(0.985074 0.0063268 0)
(0.981291 0.00638888 0)
(0.976893 0.00644653 0)
(0.97176 0.00649801 0)
(0.965918 0.00654713 0)
(0.959265 0.00659853 0)
(0.951841 0.00665125 0)
(0.943521 0.00670484 0)
(0.934344 0.0067563 0)
(0.924187 0.00679717 0)
(0.913116 0.00683171 0)
(0.900986 0.00685426 0)
(0.887914 0.00685125 0)
(0.873812 0.00682521 0)
(0.858736 0.00678077 0)
(0.84264 0.00668725 0)
(0.825759 0.00651503 0)
(0.80828 0.00623491 0)
(0.790571 0.0057934 0)
(0.773053 0.00517545 0)
(0.756321 0.00438528 0)
(0.740856 0.00354077 0)
(0.726866 0.00275614 0)
(0.714177 0.00213497 0)
(0.70245 0.00169625 0)
(0.691356 0.00140111 0)
(0.680846 0.00119793 0)
(0.670613 0.00104625 0)
(0.660725 0.000942853 0)
(0.651 0.000876956 0)
(0.641444 0.000835964 0)
(0.631949 0.000807676 0)
(0.62257 0.000784002 0)
(0.613227 0.000763088 0)
(0.603983 0.000739259 0)
(0.594798 0.000716292 0)
(0.585739 0.000689374 0)
(0.576727 0.000661213 0)
(0.567936 0.000637284 0)
(0.559188 0.000609776 0)
(0.550631 0.000585456 0)
(0.542176 0.000560521 0)
(0.533896 0.000530497 0)
(0.525763 0.00050452 0)
(0.51788 0.000476684 0)
(0.51009 0.000451627 0)
(0.502613 0.000428384 0)
(0.495207 0.000405233 0)
(0.488088 0.000386925 0)
(0.481074 0.000366082 0)
(0.474296 0.000346654 0)
(0.46768 0.000328446 0)
(0.461321 0.000309073 0)
(0.45504 0.000292504 0)
(0.449083 0.000276419 0)
(0.443197 0.000263409 0)
(0.437575 0.000251326 0)
(0.432003 0.000236877 0)
(0.426694 0.000226462 0)
(0.421468 0.000213548 0)
(0.416505 0.000199982 0)
(0.411606 0.000189531 0)
(0.406975 0.00018099 0)
(0.402375 0.000172022 0)
(0.398049 0.000159093 0)
(0.393749 0.000149878 0)
(0.389795 0.000142729 0)
(0.385858 0.000130708 0)
(0.382187 0.000124144 0)
(0.378537 0.000118915 0)
(0.375219 0.000106581 0)
(0.371887 9.91402e-05 0)
(0.368933 9.48862e-05 0)
(0.365966 8.36964e-05 0)
(0.363314 7.68956e-05 0)
(0.36062 7.52005e-05 0)
(0.358329 6.78713e-05 0)
(0.355982 5.70628e-05 0)
(0.353997 5.4145e-05 0)
(0.351907 5.23843e-05 0)
(0.350238 4.55049e-05 0)
(0.348424 3.85227e-05 0)
(0.34705 3.68759e-05 0)
(0.345461 3.35084e-05 0)
(0.344359 2.91082e-05 0)
(0.34296 2.54061e-05 0)
(0.342127 2.37831e-05 0)
(0.340877 2.02583e-05 0)
(0.340303 1.80674e-05 0)
(0.33914 1.60489e-05 0)
(0.338826 1.49553e-05 0)
(0.337698 1.23385e-05 0)
(0.337636 1.34752e-05 0)
(0.336416 1.78835e-05 0)
(0.997219 0.00356459 0)
(0.996665 0.00473567 0)
(0.996343 0.00540847 0)
(0.996247 0.00554969 0)
(0.996279 0.00549817 0)
(0.996295 0.0054815 0)
(0.99634 0.0055581 0)
(0.99632 0.00569982 0)
(0.996261 0.00586736 0)
(0.996026 0.00603678 0)
(0.995693 0.00620361 0)
(0.99512 0.00636905 0)
(0.994408 0.00653817 0)
(0.993386 0.00670903 0)
(0.992161 0.00688328 0)
(0.99056 0.00704858 0)
(0.988685 0.00721121 0)
(0.986376 0.00736744 0)
(0.983734 0.00749486 0)
(0.980627 0.00759522 0)
(0.977092 0.00767815 0)
(0.973046 0.00770629 0)
(0.968548 0.00763605 0)
(0.963573 0.00743493 0)
(0.95822 0.00705726 0)
(0.952537 0.00647046 0)
(0.946736 0.00568349 0)
(0.940899 0.00478872 0)
(0.935226 0.00392214 0)
(0.929621 0.00321195 0)
(0.924179 0.00272871 0)
(0.918655 0.00241769 0)
(0.913248 0.00222579 0)
(0.907705 0.00210147 0)
(0.9022 0.00202327 0)
(0.896578 0.00198148 0)
(0.890906 0.00196031 0)
(0.885077 0.00194881 0)
(0.879172 0.00193575 0)
(0.873071 0.00192141 0)
(0.866912 0.00189933 0)
(0.860519 0.00187058 0)
(0.854104 0.00183871 0)
(0.847443 0.00179831 0)
(0.840778 0.00175647 0)
(0.833928 0.00171317 0)
(0.827025 0.00166822 0)
(0.819976 0.0016228 0)
(0.812914 0.00157021 0)
(0.805674 0.00151569 0)
(0.798539 0.00146113 0)
(0.791169 0.00140672 0)
(0.783956 0.00135178 0)
(0.776558 0.0012995 0)
(0.769265 0.00125068 0)
(0.761876 0.00120055 0)
(0.754562 0.00115101 0)
(0.747168 0.00109937 0)
(0.73993 0.00105052 0)
(0.732541 0.00100431 0)
(0.725403 0.000955447 0)
(0.718131 0.000913176 0)
(0.711075 0.000874229 0)
(0.70393 0.000833517 0)
(0.696984 0.000797314 0)
(0.689971 0.000755648 0)
(0.683229 0.000716441 0)
(0.676424 0.000681781 0)
(0.66985 0.000647295 0)
(0.663261 0.000616429 0)
(0.656987 0.000582299 0)
(0.650565 0.000547505 0)
(0.644614 0.000516645 0)
(0.638609 0.000483686 0)
(0.632877 0.000457487 0)
(0.627156 0.000432896 0)
(0.621906 0.000400167 0)
(0.616465 0.000371124 0)
(0.611591 0.000346936 0)
(0.606685 0.000318411 0)
(0.602205 0.000296673 0)
(0.597558 0.000276938 0)
(0.593602 0.000251453 0)
(0.589476 0.000225039 0)
(0.585906 0.000210134 0)
(0.582109 0.000194138 0)
(0.579075 0.000173721 0)
(0.575676 0.000153641 0)
(0.573065 0.000142529 0)
(0.570014 0.000127862 0)
(0.567886 0.000114763 0)
(0.565108 0.000100866 0)
(0.563435 9.29346e-05 0)
(0.560901 8.00603e-05 0)
(0.559689 7.32557e-05 0)
(0.5573 6.32981e-05 0)
(0.556553 5.87736e-05 0)
(0.554255 4.92721e-05 0)
(0.553959 4.87723e-05 0)
(0.551614 5.20196e-05 0)
(0.997726 0.00341046 0)
(0.997127 0.00439705 0)
(0.996726 0.00516577 0)
(0.996578 0.00556555 0)
(0.996661 0.00568479 0)
(0.996808 0.00571682 0)
(0.99708 0.00577283 0)
(0.997351 0.00588484 0)
(0.997696 0.00603788 0)
(0.997962 0.00620879 0)
(0.998288 0.00638085 0)
(0.998521 0.00655166 0)
(0.998817 0.00672651 0)
(0.999002 0.00690896 0)
(0.999225 0.00709187 0)
(0.999333 0.00726998 0)
(0.999455 0.00744618 0)
(0.999463 0.00762358 0)
(0.999479 0.00776838 0)
(0.999397 0.00789265 0)
(0.999271 0.00799575 0)
(0.999034 0.00804552 0)
(0.998732 0.00797997 0)
(0.998269 0.00777764 0)
(0.997699 0.00740253 0)
(0.996898 0.00683453 0)
(0.995975 0.00607779 0)
(0.994764 0.00521716 0)
(0.993457 0.00437791 0)
(0.991873 0.00367478 0)
(0.990257 0.00318121 0)
(0.988417 0.00286758 0)
(0.986625 0.00267702 0)
(0.984682 0.00256731 0)
(0.982795 0.00250093 0)
(0.980804 0.00246323 0)
(0.978835 0.00243992 0)
(0.976725 0.00242455 0)
(0.974635 0.00241114 0)
(0.972356 0.00239655 0)
(0.970104 0.00237695 0)
(0.967617 0.00235419 0)
(0.965152 0.00232635 0)
(0.962431 0.00229297 0)
(0.959707 0.00225823 0)
(0.95676 0.00222158 0)
(0.953772 0.00218638 0)
(0.950566 0.00214823 0)
(0.947362 0.00210385 0)
(0.943868 0.00205533 0)
(0.940459 0.00200649 0)
(0.936714 0.00196038 0)
(0.933066 0.00190862 0)
(0.929122 0.00186125 0)
(0.925214 0.00181657 0)
(0.921075 0.00176845 0)
(0.916936 0.0017217 0)
(0.912564 0.00166914 0)
(0.908275 0.00162123 0)
(0.903674 0.0015749 0)
(0.899228 0.00152123 0)
(0.894458 0.00147668 0)
(0.889819 0.00143393 0)
(0.8849 0.00138633 0)
(0.880077 0.00134605 0)
(0.875035 0.00129721 0)
(0.870107 0.00124643 0)
(0.864955 0.00120427 0)
(0.859956 0.00116216 0)
(0.854684 0.00111689 0)
(0.849686 0.00107238 0)
(0.844327 0.00102651 0)
(0.839301 0.000977254 0)
(0.83404 0.000929873 0)
(0.829008 0.000892825 0)
(0.823711 0.000848631 0)
(0.818901 0.000798838 0)
(0.813649 0.000756189 0)
(0.808946 0.000712088 0)
(0.803934 0.000661312 0)
(0.799454 0.0006274 0)
(0.794505 0.000591003 0)
(0.790332 0.000542982 0)
(0.785687 0.000496623 0)
(0.781788 0.000469683 0)
(0.777295 0.000434765 0)
(0.773826 0.000396201 0)
(0.769597 0.000358574 0)
(0.766492 0.000334932 0)
(0.762493 0.000302179 0)
(0.75987 0.000276816 0)
(0.756063 0.000246923 0)
(0.753916 0.000229179 0)
(0.750294 0.000200545 0)
(0.748669 0.000186037 0)
(0.745146 0.000162302 0)
(0.74408 0.000151486 0)
(0.74061 0.000129109 0)
(0.740115 0.000124769 0)
(0.736575 0.000118072 0)
(0.998096 0.00342531 0)
(0.997478 0.0042969 0)
(0.997021 0.00504575 0)
(0.996781 0.00554471 0)
(0.996816 0.00576072 0)
(0.996939 0.00582393 0)
(0.997231 0.00584765 0)
(0.99752 0.00590367 0)
(0.997903 0.00601489 0)
(0.998202 0.00616863 0)