/*--------------------------------*- C++ -*----------------------------------*\
| =========                 |                                                 |
| \\      /  F ield         | OpenFOAM: The Open Source CFD Toolbox           |
|  \\    /   O peration     | Version:  v1906                                 |
|   \\  /    A nd           | Web:      www.OpenFOAM.com                      |
|    \\/     M anipulation  |                                                 |
\*---------------------------------------------------------------------------*/
FoamFile
{
    version     2.0;
    format      ascii;
    class       surfaceScalarField;
    location    "0.7";
    object      phi;
}
// * * * * * * * * * * * * * * * * * * * * * * * * * * * * * * * * * * * * * //

dimensions      [0 3 -1 0 0 0 0];
oriented        oriented;


internalField   nonuniform List<scalar> 
9440
(
3.88059e-06
-1.27224e-08
3.87667e-06
-1.49096e-11
3.88091e-06
3.95983e-08
3.87718e-06
-1.37042e-08
3.8786e-06
-7.37095e-09
3.87579e-06
-2.13697e-08
3.877e-06
-2.94631e-09
3.87516e-06
-3.14867e-08
3.87703e-06
1.47469e-08
3.87763e-06
-1.44599e-08
3.8798e-06
2.28839e-08
3.88184e-06
-4.84409e-10
3.88357e-06
1.89271e-08
3.88494e-06
-4.42106e-09
3.88632e-06
1.17532e-08
3.8868e-06
-8.98004e-09
3.88649e-06
5.48734e-09
3.88114e-06
-7.17518e-09
3.86707e-06
1.78777e-08
3.15017e-08
3.84344e-06
4.1826e-06
-9.46158e-09
4.18632e-06
-3.73763e-09
4.1849e-06
4.10241e-08
4.18711e-06
-1.59184e-08
4.18409e-06
-4.34775e-09
4.18467e-06
-2.19553e-08
4.18367e-06
-1.94108e-09
4.18272e-06
-3.05443e-08
4.18464e-06
1.28278e-08
4.18289e-06
-1.27081e-08
4.18645e-06
1.93266e-08
4.1848e-06
1.16862e-09
4.18871e-06
1.50093e-08
4.18817e-06
-3.87437e-09
4.19146e-06
8.46358e-09
4.18831e-06
-5.83761e-09
4.18784e-06
5.9572e-09
4.1758e-06
4.87123e-09
4.16776e-06
2.59178e-08
3.89063e-08
4.16035e-06
4.51705e-06
-6.44969e-09
4.51944e-06
-6.12953e-09
4.51939e-06
4.10809e-08
4.52e-06
-1.65282e-08
4.51951e-06
-3.86097e-09
4.51746e-06
-1.99052e-08
4.51977e-06
-4.24765e-09
4.5153e-06
-2.6076e-08
4.52121e-06
6.91637e-09
4.5156e-06
-7.10393e-09
4.52291e-06
1.2016e-08
4.51756e-06
6.52379e-09
4.52509e-06
7.48138e-09
4.52026e-06
9.56445e-10
4.52657e-06
2.14903e-09
4.52162e-06
-8.83514e-10
4.52237e-06
5.20447e-09
4.50934e-06
1.79009e-08
4.50312e-06
3.21361e-08
4.54736e-08
4.49655e-06
4.87979e-06
-5.29305e-09
4.87969e-06
-6.03225e-09
4.88234e-06
3.84344e-08
4.88036e-06
-1.45464e-08
4.88261e-06
-6.11515e-09
4.87831e-06
-1.55982e-08
4.88272e-06
-8.66643e-09
4.87672e-06
-2.00689e-08
4.88302e-06
6.16885e-10
4.87842e-06
-2.50468e-09
4.88412e-06
6.31806e-09
4.88324e-06
7.40302e-09
4.88728e-06
3.43914e-09
4.88729e-06
9.47957e-10
4.88806e-06
1.37225e-09
4.88347e-06
3.71423e-09
4.87506e-06
1.36086e-08
4.86707e-06
2.58893e-08
4.86264e-06
3.65669e-08
4.91209e-08
4.859e-06
5.27017e-06
-4.81358e-09
5.2689e-06
-4.76107e-09
5.2732e-06
3.41344e-08
5.26966e-06
-1.10117e-08
5.27337e-06
-9.82572e-09
5.26816e-06
-1.03869e-08
5.27303e-06
-1.35398e-08
5.26754e-06
-1.45721e-08
5.27227e-06
-4.1165e-09
5.27117e-06
-1.40419e-09
5.27419e-06
3.29398e-09
5.27638e-06
5.21236e-09
5.27827e-06
1.55099e-09
5.2781e-06
1.11929e-09
5.27606e-06
3.41622e-09
5.26879e-06
1.09812e-08
5.26059e-06
2.18045e-08
5.25502e-06
3.14615e-08
5.25129e-06
4.0297e-08
5.13046e-08
5.24911e-06
5.69119e-06
-4.5486e-09
5.68902e-06
-2.58967e-09
5.69454e-06
2.86141e-08
5.6903e-06
-6.76709e-09
5.69405e-06
-1.35749e-08
5.68989e-06
-6.22724e-09
5.69245e-06
-1.61044e-08
5.69121e-06
-1.33258e-08
5.69166e-06
-4.57327e-09
5.69455e-06
-4.28993e-09
5.69601e-06
1.83325e-09
5.69797e-06
3.24887e-09
5.69913e-06
3.91484e-10
5.69755e-06
2.69851e-09
5.69125e-06
9.7176e-09
5.68326e-06
1.89698e-08
5.67833e-06
2.67404e-08
5.67417e-06
3.5615e-08
5.67113e-06
4.33379e-08
5.28158e-08
5.66962e-06
6.1457e-06
-4.37932e-09
6.14287e-06
2.37581e-10
6.14896e-06
2.25289e-08
6.14502e-06
-2.83294e-09
6.14742e-06
-1.59742e-08
6.14593e-06
-4.73476e-09
6.14499e-06
-1.51587e-08
6.1477e-06
-1.60429e-08
6.1467e-06
-3.56599e-09
6.14886e-06
-6.45913e-09
6.15185e-06
-1.15662e-09
6.15249e-06
2.611e-09
6.15141e-06
1.4749e-09
6.14672e-06
7.38555e-09
6.13909e-06
1.73459e-08
6.13414e-06
2.39207e-08
6.13029e-06
3.05962e-08
6.12716e-06
3.8741e-08
6.12458e-06
4.59217e-08
5.39404e-08
6.12345e-06
6.63642e-06
-4.24007e-09
6.63333e-06
3.32977e-09
6.63881e-06
1.70532e-08
6.63663e-06
-6.55475e-10
6.63645e-06
-1.57994e-08
6.63846e-06
-6.7385e-09
6.63581e-06
-1.25087e-08
6.63784e-06
-1.80751e-08
6.64017e-06
-5.89715e-09
6.6399e-06
-6.18382e-09
6.64247e-06
-3.73042e-09
6.64198e-06
3.09816e-09
6.63767e-06
5.79099e-09
6.63145e-06
1.35968e-08
6.62628e-06
2.25161e-08
6.62218e-06
2.80288e-08
6.61905e-06
3.37196e-08
6.61645e-06
4.13419e-08
6.61433e-06
4.80406e-08
5.48736e-08
6.6134e-06
7.16622e-06
-4.03381e-09
7.16348e-06
6.0728e-09
7.16664e-06
1.38955e-08
7.16798e-06
-1.99478e-09
7.16533e-06
-1.31478e-08
7.16838e-06
-9.78788e-09
7.16797e-06
-1.21053e-08
7.16708e-06
-1.71838e-08
7.17039e-06
-9.20784e-09
7.17112e-06
-6.91018e-09
7.17066e-06
-3.27175e-09
7.1694e-06
4.35275e-09
7.16322e-06
1.19798e-08
7.15724e-06
1.95705e-08
7.15339e-06
2.63721e-08
7.14996e-06
3.14543e-08
7.14719e-06
3.64918e-08
7.14498e-06
4.35518e-08
7.14328e-06
4.97427e-08
5.56756e-08
7.14247e-06
7.73828e-06
-3.70936e-09
7.73641e-06
7.94282e-09
7.73689e-06
1.34161e-08
7.74116e-06
-6.26633e-09
7.73829e-06
-1.02733e-08
7.73937e-06
-1.08715e-08
7.742e-06
-1.47348e-08
7.74017e-06
-1.53501e-08
7.74147e-06
-1.05084e-08
7.74269e-06
-8.13903e-09
7.7401e-06
-6.75047e-10
7.73525e-06
9.20396e-09
7.73052e-06
1.67118e-08
7.72664e-06
2.34421e-08
7.7234e-06
2.96176e-08
7.72034e-06
3.45087e-08
7.71776e-06
3.90802e-08
7.71587e-06
4.54364e-08
7.71447e-06
5.11388e-08
5.6319e-08
7.71383e-06
8.35601e-06
-3.25603e-09
8.35552e-06
8.43182e-09
8.35411e-06
1.48288e-08
8.3583e-06
-1.04655e-08
8.35807e-06
-1.00388e-08
8.35645e-06
-9.25281e-09
8.35941e-06
-1.76894e-08
8.36012e-06
-1.60684e-08
8.35806e-06
-8.44596e-09
8.35742e-06
-7.49591e-09
8.35482e-06
1.92218e-09
8.34917e-06
1.48535e-08
8.34472e-06
2.11659e-08
8.34189e-06
2.62651e-08
8.33925e-06
3.22607e-08
8.33651e-06
3.72493e-08
8.33414e-06
4.1451e-08
8.33251e-06
4.70649e-08
8.33138e-06
5.22747e-08
5.67843e-08
8.33091e-06
9.02316e-06
-2.77006e-09
9.02436e-06
7.23476e-09
9.02214e-06
1.70473e-08
9.02314e-06
-1.14607e-08
9.02709e-06
-1.39948e-08
9.02476e-06
-6.92217e-09
9.0251e-06
-1.80296e-08
9.02721e-06
-1.81796e-08
9.02502e-06
-6.25119e-09
9.02017e-06
-2.65216e-09
9.0172e-06
4.89514e-09
9.01397e-06
1.80806e-08
9.00977e-06
2.53686e-08
9.00674e-06
2.92956e-08
9.0045e-06
3.45002e-08
9.0021e-06
3.96465e-08
9.00001e-06
4.3546e-08
8.99856e-06
4.85132e-08
8.99765e-06
5.31806e-08
5.70813e-08
8.99736e-06
9.74369e-06
-2.36149e-09
9.74552e-06
5.40512e-09
9.74448e-06
1.80866e-08
9.7416e-06
-8.57432e-09
9.74684e-06
-1.92388e-08
9.74787e-06
-7.94649e-09
9.74493e-06
-1.50949e-08
9.74514e-06
-1.83903e-08
9.74464e-06
-5.74998e-09
9.73841e-06
3.57625e-09
9.7333e-06
1.00042e-08
9.73104e-06
2.03404e-08
9.72837e-06
2.80442e-08
9.72539e-06
3.22772e-08
9.72318e-06
3.67115e-08
9.72107e-06
4.17483e-08
9.71925e-06
4.5373e-08
9.71798e-06
4.97832e-08
9.71728e-06
5.38794e-08
5.71905e-08
9.71717e-06
1.05219e-05
-2.14471e-09
1.05231e-05
4.21368e-09
1.05249e-05
1.62664e-08
1.052e-05
-3.65307e-09
1.05221e-05
-2.13648e-08
1.05267e-05
-1.25459e-08
1.05241e-05
-1.25391e-08
1.05198e-05
-1.41128e-08
1.05183e-05
-4.21415e-09
1.0515e-05
6.92758e-09
1.05095e-05
1.55008e-08
1.05061e-05
2.37306e-08
1.05041e-05
3.00554e-08
1.05017e-05
3.46216e-08
1.04996e-05
3.88726e-08
1.04977e-05
4.36057e-08
1.04961e-05
4.69645e-08
1.0495e-05
5.08447e-08
1.04945e-05
5.43829e-08
5.71138e-08
1.04946e-05
1.13621e-05
-2.12143e-09
1.13623e-05
4.06165e-09
1.13664e-05
1.21704e-08
1.13625e-05
2.12419e-10
1.13597e-05
-1.85775e-08
1.13643e-05
-1.71391e-08
1.13653e-05
-1.35522e-08
1.13589e-05
-7.70463e-09
1.13537e-05
9.86792e-10
1.13513e-05
9.34409e-09
1.13482e-05
1.85939e-08
1.13446e-05
2.73303e-08
1.1342e-05
3.26535e-08
1.13401e-05
3.65506e-08
1.13382e-05
4.07833e-08
1.13366e-05
4.52089e-08
1.13352e-05
4.83469e-08
1.13344e-05
5.16912e-08
1.13341e-05
5.4683e-08
5.68649e-08
1.13343e-05
1.22694e-05
-2.14948e-09
1.22688e-05
4.61835e-09
1.2273e-05
7.94194e-09
1.22728e-05
4.47822e-10
1.22668e-05
-1.25348e-08
1.2267e-05
-1.73404e-08
1.22702e-05
-1.67563e-08
1.2267e-05
-4.56928e-09
1.22595e-05
8.49033e-09
1.22548e-05
1.40758e-08
1.22529e-05
2.05288e-08
1.22506e-05
2.96358e-08
1.22478e-05
3.54288e-08
1.22457e-05
3.86714e-08
1.2244e-05
4.24046e-08
1.22427e-05
4.65426e-08
1.22415e-05
4.95017e-08
1.22409e-05
5.2333e-08
1.22408e-05
5.47726e-08
5.64556e-08
1.22412e-05
1.32488e-05
-2.0536e-09
1.32488e-05
4.67009e-09
1.3251e-05
5.73346e-09
1.32536e-05
-2.13283e-09
1.32486e-05
-7.57409e-09
1.32434e-05
-1.21239e-08
1.32432e-05
-1.65247e-08
1.32445e-05
-5.92027e-09
1.32395e-05
1.34784e-08
1.32329e-05
2.07338e-08
1.32297e-05
2.36979e-08
1.32283e-05
3.1032e-08
1.32263e-05
3.74631e-08
1.3224e-05
4.09672e-08
1.32225e-05
4.38915e-08
1.32214e-05
4.76709e-08
1.32204e-05
5.04097e-08
1.322e-05
5.27704e-08
1.32201e-05
5.46613e-08
5.58734e-08
1.32207e-05
1.43065e-05
-1.77128e-09
1.43075e-05
3.57745e-09
1.43076e-05
5.68159e-09
1.43104e-05
-4.89963e-09
1.43089e-05
-6.08865e-09
1.43011e-05
-4.38628e-09
1.42956e-05
-1.10319e-08
1.42958e-05
-6.0334e-09
1.42958e-05
1.34463e-08
1.42908e-05
2.57448e-08
1.4286e-05
2.85139e-08
1.42841e-05
3.29477e-08
1.42826e-05
3.88715e-08
1.42808e-05
4.28247e-08
1.42794e-05
4.53001e-08
1.42785e-05
4.85872e-08
1.42778e-05
5.10908e-08
1.42776e-05
5.2971e-08
1.42779e-05
5.4374e-08
5.51233e-08
1.42786e-05
1.54487e-05
-1.45355e-09
1.54503e-05
1.91453e-09
1.54502e-05
5.82244e-09
1.54503e-05
-4.97915e-09
1.54511e-05
-6.89048e-09
1.54455e-05
1.1594e-09
1.54364e-05
-1.84507e-09
1.54321e-05
-1.7818e-09
1.54331e-05
1.24443e-08
1.5432e-05
2.68455e-08
1.54281e-05
3.2457e-08
1.54249e-05
3.60564e-08
1.54235e-05
4.0356e-08
1.54221e-05
4.41952e-08
1.54209e-05
4.64714e-08
1.54202e-05
4.92807e-08
1.54198e-05
5.15355e-08
1.54198e-05
5.29717e-08
1.54202e-05
5.39111e-08
5.42213e-08
1.54211e-05
1.66823e-05
-1.25709e-09
1.66836e-05
6.04063e-10
1.66846e-05
4.77758e-09
1.66822e-05
-2.59928e-09
1.66818e-05
-6.45238e-09
1.66796e-05
3.37925e-09
1.66714e-05
6.36158e-09
1.66634e-05
6.16801e-09
1.66616e-05
1.42198e-08
1.66623e-05
2.62185e-08
1.66608e-05
3.39451e-08
1.66581e-05
3.87579e-08
1.66559e-05
4.24915e-08
1.66547e-05
4.54723e-08
1.66538e-05
4.73284e-08
1.66534e-05
4.97006e-08
1.66533e-05
5.16203e-08
1.66535e-05
5.2796e-08
1.66541e-05
5.32703e-08
5.31781e-08
1.66552e-05
1.80144e-05
-1.2288e-09
1.80148e-05
1.28137e-10
1.80166e-05
2.98309e-09
1.80139e-05
1.12143e-10
1.80106e-05
-3.09181e-09
1.80095e-05
4.43269e-09
1.80044e-05
1.14679e-08
1.79965e-05
1.40882e-08
1.79914e-05
1.92831e-08
1.79907e-05
2.6994e-08
1.79907e-05
3.38723e-08
1.79896e-05
3.99223e-08
1.79878e-05
4.42819e-08
1.79863e-05
4.69706e-08
1.79854e-05
4.81708e-08
1.79853e-05
4.98619e-08
1.79855e-05
5.13846e-08
1.7986e-05
5.22902e-08
1.79867e-05
5.25458e-08
5.1986e-08
1.79879e-05
1.94527e-05
-1.21603e-09
1.94526e-05
2.36353e-10
1.94538e-05
1.78672e-09
1.94521e-05
1.73718e-09
1.94472e-05
1.80102e-09
1.94445e-05
7.2117e-09
1.94419e-05
1.39828e-08
1.94361e-05
1.99603e-08
1.94303e-05
2.50929e-08
1.94272e-05
3.00489e-08
1.94266e-05
3.44574e-08
1.94267e-05
3.98409e-08
1.9426e-05
4.49887e-08
1.94248e-05
4.81862e-08
1.94239e-05
4.90244e-08
1.94238e-05
4.99738e-08
1.94243e-05
5.08959e-08
1.94251e-05
5.14555e-08
1.94262e-05
5.15334e-08
5.07374e-08
1.94274e-05
2.10056e-05
-1.05628e-09
2.10054e-05
5.19228e-10
2.10052e-05
1.95026e-09
2.10042e-05
2.69261e-09
2.09998e-05
6.2399e-09
2.09952e-05
1.17736e-08
2.09926e-05
1.66023e-08
2.09894e-05
2.31525e-08
2.09847e-05
2.98371e-08
2.09806e-05
3.41503e-08
2.09786e-05
3.63992e-08
2.09784e-05
4.00593e-08
2.09788e-05
4.46488e-08
2.09784e-05
4.85396e-08
2.09778e-05
4.96464e-08
2.09778e-05
5.00037e-08
2.09783e-05
5.03308e-08
2.09793e-05
5.04333e-08
2.09807e-05
5.01888e-08
4.93488e-08
2.09821e-05
2.26826e-05
-7.15197e-10
2.26821e-05
9.79602e-10
2.2681e-05
3.11997e-09
2.26794e-05
4.2181e-09
2.26762e-05
9.44356e-09
2.26714e-05
1.66189e-08
2.26677e-05
2.02626e-08
2.26653e-05
2.5565e-08
2.26624e-05
3.27735e-08
2.26589e-05
3.76289e-08
2.2656e-05
3.92891e-08
2.26551e-05
4.09723e-08
2.26554e-05
4.43474e-08
2.2656e-05
4.79358e-08
2.2656e-05
4.96297e-08
2.26562e-05
4.98505e-08
2.26569e-05
4.9603e-08
2.2658e-05
4.93151e-08
2.26595e-05
4.87058e-08
4.76573e-08
2.26612e-05
2.44934e-05
-1.97378e-10
2.44927e-05
1.73621e-09
2.44909e-05
4.88617e-09
2.44885e-05
6.65065e-09
2.44859e-05
1.20195e-08
2.4482e-05
2.0543e-08
2.44777e-05
2.44882e-08
2.44751e-05
2.82629e-08
2.44733e-05
3.45538e-08
2.44708e-05
4.00681e-08
2.44683e-05
4.17909e-08
2.44666e-05
4.26811e-08
2.44666e-05
4.43423e-08
2.44675e-05
4.70946e-08
2.44683e-05
4.8822e-08
2.44689e-05
4.92685e-08
2.44698e-05
4.86786e-08
2.44711e-05
4.8013e-08
2.44727e-05
4.71161e-08
4.58091e-08
2.44745e-05
2.64489e-05
4.60284e-10
2.64477e-05
2.89615e-09
2.64457e-05
6.97174e-09
2.64426e-05
9.67648e-09
2.64398e-05
1.48098e-08
2.64369e-05
2.34388e-08
2.64331e-05
2.83601e-08
2.643e-05
3.1302e-08
2.64284e-05
3.61891e-08
2.64271e-05
4.13743e-08
2.64253e-05
4.36343e-08
2.64238e-05
4.4096e-08
2.64233e-05
4.48789e-08
2.64241e-05
4.62566e-08
2.64253e-05
4.76328e-08
2.64265e-05
4.80701e-08
2.64277e-05
4.75191e-08
2.64292e-05
4.64532e-08
2.6431e-05
4.53424e-08
4.38679e-08
2.6433e-05
2.85606e-05
1.18345e-09
2.8559e-05
4.46952e-09
2.85567e-05
9.26594e-09
2.85534e-05
1.29949e-08
2.85503e-05
1.7932e-08
2.85478e-05
2.59129e-08
2.85448e-05
3.14167e-08
2.85418e-05
3.42865e-08
2.85401e-05
3.78235e-08
2.85393e-05
4.21977e-08
2.85383e-05
4.46443e-08
2.85374e-05
4.50009e-08
2.8537e-05
4.52535e-08
2.85375e-05
4.57547e-08
2.8539e-05
4.61875e-08
2.85405e-05
4.64998e-08
2.85422e-05
4.58768e-08
2.85439e-05
4.47197e-08
2.85459e-05
4.33281e-08
4.17582e-08
2.8548e-05
3.08409e-05
1.97835e-09
3.0839e-05
6.30976e-09
3.08365e-05
1.17712e-08
3.08332e-05
1.63095e-08
3.083e-05
2.1201e-08
3.08276e-05
2.83122e-08
3.08252e-05
3.38203e-08
3.08226e-05
3.68454e-08
3.08209e-05
3.94897e-08
3.08204e-05
4.27304e-08
3.082e-05
4.50335e-08
3.08196e-05
4.5396e-08
3.08197e-05
4.51146e-08
3.08203e-05
4.51929e-08
3.08217e-05
4.4786e-08
3.08236e-05
4.45716e-08
3.08256e-05
4.39101e-08
3.08277e-05
4.26665e-08
3.08298e-05
4.11944e-08
3.94523e-08
3.08321e-05
3.33033e-05
2.83078e-09
3.33013e-05
8.26286e-09
3.32987e-05
1.44127e-08
3.32954e-05
1.95192e-08
3.32922e-05
2.44091e-08
3.32899e-05
3.06673e-08
3.32879e-05
3.58007e-08
3.32859e-05
3.88642e-08
3.32844e-05
4.10067e-08
3.32839e-05
4.31795e-08
3.3284e-05
4.4958e-08
3.32841e-05
4.52722e-08
3.32847e-05
4.45507e-08
3.32856e-05
4.42942e-08
3.3287e-05
4.33886e-08
3.3289e-05
4.25597e-08
3.32913e-05
4.16479e-08
3.32936e-05
4.02755e-08
3.32959e-05
3.8889e-08
3.69609e-08
3.32984e-05
3.59623e-05
3.66981e-09
3.59603e-05
1.02301e-08
3.59577e-05
1.70133e-08
3.59547e-05
2.25519e-08
3.59517e-05
2.74436e-08
3.59494e-05
3.29305e-08
3.59477e-05
3.75257e-08
3.59462e-05
4.03597e-08
3.5945e-05
4.21709e-08
3.59446e-05
4.35772e-08
3.59449e-05
4.46598e-08
3.59455e-05
4.46904e-08
3.59464e-05
4.36575e-08
3.59477e-05
4.29756e-08
3.59493e-05
4.18037e-08
3.59514e-05
4.04601e-08
3.59538e-05
3.92363e-08
3.59565e-05
3.76105e-08
3.59592e-05
3.61944e-08
3.4385e-08
3.59617e-05
3.88337e-05
4.46851e-09
3.88318e-05
1.2071e-08
3.88294e-05
1.94286e-08
3.88266e-05
2.53164e-08
3.88239e-05
3.01421e-08
3.88219e-05
3.50158e-08
3.88203e-05
3.90409e-08
3.88192e-05
4.14577e-08
3.88185e-05
4.29166e-08
3.88183e-05
4.37482e-08
3.88188e-05
4.41908e-08
3.88196e-05
4.388e-08
3.88207e-05
4.25303e-08
3.88223e-05
4.13765e-08
3.88242e-05
3.99674e-08
3.88264e-05
3.82108e-08
3.88289e-05
3.67289e-08
3.88317e-05
3.48039e-08
3.88348e-05
3.31567e-08
3.15089e-08
3.88376e-05
4.19343e-05
5.16032e-09
4.19327e-05
1.36948e-08
4.19306e-05
2.15185e-08
4.19283e-05
2.76537e-08
4.1926e-05
3.23887e-08
4.19243e-05
3.67328e-08
4.19231e-05
4.02825e-08
4.19223e-05
4.22698e-08
4.19218e-05
4.33407e-08
4.19219e-05
4.36607e-08
4.19226e-05
4.35126e-08
4.19236e-05
4.29129e-08
4.19249e-05
4.12329e-08
4.19267e-05
3.95656e-08
4.19287e-05
3.79394e-08
4.19311e-05
3.58032e-08
4.19338e-05
3.40674e-08
4.19366e-05
3.19739e-08
4.19397e-05
3.00679e-08
2.81437e-08
4.19431e-05
4.52826e-05
5.69401e-09
4.52813e-05
1.49722e-08
4.52798e-05
2.31109e-08
4.5278e-05
2.93864e-08
4.52763e-05
3.4075e-08
4.52752e-05
3.7917e-08
4.52743e-05
4.11189e-08
4.52738e-05
4.2797e-08
4.52736e-05
4.35047e-08
4.52739e-05
4.3352e-08
4.52748e-05
4.26211e-08
4.5276e-05
4.169e-08
4.52775e-05
3.98156e-08
4.52794e-05
3.75996e-08
4.52816e-05
3.57692e-08
4.52841e-05
3.33298e-08
4.52869e-05
3.12627e-08
4.52899e-05
2.89826e-08
4.52931e-05
2.67908e-08
2.47973e-08
4.52965e-05
4.88983e-05
6.01606e-09
4.88975e-05
1.57754e-08
4.88965e-05
2.40605e-08
4.88956e-05
3.03642e-08
4.88946e-05
3.50177e-08
4.88941e-05
3.83918e-08
4.88941e-05
4.11988e-08
4.8894e-05
4.28234e-08
4.88941e-05
4.34467e-08
4.88944e-05
4.30251e-08
4.88954e-05
4.16671e-08
4.88969e-05
4.01988e-08
4.88984e-05
3.82374e-08
4.89005e-05
3.55009e-08
4.8903e-05
3.33085e-08
4.89055e-05
3.08008e-08
4.89085e-05
2.83288e-08
4.89115e-05
2.59365e-08
4.89148e-05
2.34742e-08
2.14304e-08
4.89182e-05
5.28026e-05
6.09184e-09
5.28025e-05
1.59509e-08
5.28023e-05
2.4197e-08
5.28023e-05
3.0361e-08
5.28023e-05
3.50173e-08
5.28026e-05
3.81023e-08
5.28034e-05
4.04092e-08
5.28045e-05
4.17425e-08
5.28053e-05
4.25954e-08
5.28059e-05
4.24175e-08
5.28064e-05
4.1234e-08
5.28078e-05
3.88216e-08
5.28093e-05
3.66755e-08
5.28112e-05
3.35926e-08
5.28137e-05
3.08401e-08
5.28165e-05
2.79563e-08
5.282e-05
2.48898e-08
5.28231e-05
2.27659e-08
5.28264e-05
2.01756e-08
1.79075e-08
5.283e-05
5.70187e-05
5.87795e-09
5.70193e-05
1.53975e-08
5.70202e-05
2.33109e-08
5.70214e-05
2.91763e-08
5.70226e-05
3.37622e-08
5.7024e-05
3.67316e-08
5.70255e-05
3.88449e-08
5.70276e-05
3.96868e-08
5.70301e-05
4.0073e-08
5.70326e-05
3.99825e-08
5.70339e-05
3.9851e-08
5.70346e-05
3.8186e-08
5.7035e-05
3.62717e-08
5.70352e-05
3.33325e-08
5.70361e-05
2.99517e-08
5.70378e-05
2.63395e-08
5.70407e-05
2.19029e-08
5.70449e-05
1.86169e-08
5.70495e-05
1.5555e-08
1.29984e-08
5.70544e-05
6.15715e-05
5.34656e-09
6.15728e-05
1.40412e-08
6.15749e-05
2.12405e-08
6.15775e-05
2.65417e-08
6.15805e-05
3.08039e-08
6.15835e-05
3.37172e-08
6.15863e-05
3.60079e-08
6.15887e-05
3.73149e-08
6.15911e-05
3.77076e-08
6.15947e-05
3.63641e-08
6.15994e-05
3.51055e-08
6.16046e-05
3.30202e-08
6.16101e-05
3.07699e-08
6.16152e-05
2.82016e-08
6.16199e-05
2.52711e-08
6.16227e-05
2.35784e-08
6.16239e-05
2.06315e-08
6.1625e-05
1.7521e-08
6.16261e-05
1.45311e-08
1.17305e-08
6.16273e-05
6.64877e-05
4.48584e-09
6.649e-05
1.1681e-08
6.64934e-05
1.78584e-08
6.64976e-05
2.23203e-08
6.65024e-05
2.60009e-08
6.65077e-05
2.84754e-08
6.65131e-05
3.05913e-08
6.65185e-05
3.19297e-08
6.6523e-05
3.31442e-08
6.65251e-05
3.4313e-08
6.65254e-05
3.47999e-08
6.65245e-05
3.39568e-08
6.6523e-05
3.22694e-08
6.65215e-05
2.96491e-08
6.65216e-05
2.51596e-08
6.65241e-05
2.10526e-08
6.65278e-05
1.70196e-08
6.65324e-05
1.28845e-08
6.65378e-05
9.15578e-09
5.80288e-09
6.65437e-05
7.17963e-05
3.34724e-09
7.17994e-05
8.59909e-09
7.18041e-05
1.3156e-08
7.18099e-05
1.64899e-08
7.18166e-05
1.93421e-08
7.18236e-05
2.14028e-08
7.1831e-05
2.3265e-08
7.18384e-05
2.45206e-08
7.18459e-05
2.55954e-08
7.18542e-05
2.60374e-08
7.18628e-05
2.61888e-08
7.18711e-05
2.56854e-08
7.18787e-05
2.46765e-08
7.18852e-05
2.31165e-08
7.18894e-05
2.09929e-08
7.18922e-05
1.82103e-08
7.18942e-05
1.50661e-08
7.18958e-05
1.12212e-08
7.18971e-05
7.8705e-09
4.84827e-09
7.18981e-05
7.75292e-05
7.75335e-05
7.75397e-05
7.75473e-05
7.7556e-05
7.75654e-05
7.75756e-05
7.75861e-05
7.75969e-05
7.76077e-05
7.76185e-05
7.76289e-05
7.76387e-05
7.76475e-05
7.76545e-05
7.76599e-05
7.76637e-05
7.76655e-05
7.76658e-05
7.76651e-05
3.77612e-06
6.73203e-08
3.68152e-06
9.45995e-08
3.58153e-06
9.99914e-08
3.48307e-06
9.84561e-08
3.38482e-06
9.82564e-08
3.28539e-06
9.94257e-08
3.18424e-06
1.01147e-07
3.08127e-06
1.02973e-07
2.97655e-06
1.04724e-07
2.87004e-06
1.06508e-07
2.76177e-06
1.08269e-07
2.65158e-06
1.10188e-07
2.53948e-06
1.12106e-07
2.42553e-06
1.13948e-07
2.3097e-06
1.15823e-07
2.19222e-06
1.1748e-07
2.07332e-06
1.18905e-07
1.95313e-06
1.20188e-07
1.83189e-06
1.2124e-07
1.7103e-06
1.21591e-07
1.58923e-06
1.21072e-07
1.46982e-06
1.19408e-07
1.35417e-06
1.15649e-07
1.24489e-06
1.09285e-07
1.14551e-06
9.93751e-08
1.05949e-06
8.60217e-08
9.8971e-07
6.97805e-08
9.37165e-07
5.25447e-08
9e-07
3.71649e-08
8.74392e-07
2.56084e-08
8.56334e-07
1.80583e-08
8.43015e-07
1.33188e-08
8.32361e-07
1.06536e-08
8.23157e-07
9.20484e-09
8.14776e-07
8.38021e-09
8.06507e-07
8.26891e-09
7.97829e-07
8.67832e-09
7.88599e-07
9.23044e-09
7.78879e-07
9.71936e-09
7.68796e-07
1.00833e-08
7.58403e-07
1.03935e-08
7.47798e-07
1.06046e-08
7.36966e-07
1.08321e-08
7.25951e-07
1.10149e-08
7.15197e-07
1.07539e-08
7.04636e-07
1.0561e-08
6.93952e-07
1.06842e-08
6.83596e-07
1.03558e-08
6.73639e-07
9.95728e-09
6.63902e-07
9.73685e-09
6.54406e-07
9.49556e-09
6.45077e-07
9.32944e-09
6.36335e-07
8.74208e-09
6.27855e-07
8.47949e-09
6.19409e-07
8.44605e-09
6.11851e-07
7.55824e-09
6.04774e-07
7.0772e-09
5.97478e-07
7.29554e-09
5.90604e-07
6.87448e-09
5.84182e-07
6.42176e-09
5.78179e-07
6.00308e-09
5.72847e-07
5.33198e-09
5.67494e-07
5.35312e-09
5.6202e-07
5.47387e-09
5.57449e-07
4.57078e-09
5.53816e-07
3.63297e-09
5.49973e-07
3.84326e-09
5.45886e-07
4.08713e-09
5.42578e-07
3.3078e-09
5.39913e-07
2.66459e-09
5.37164e-07
2.74951e-09
5.34584e-07
2.57977e-09
5.32465e-07
2.1187e-09
5.30475e-07
1.99081e-09
5.28709e-07
1.76582e-09
5.27234e-07
1.47479e-09
5.2579e-07
1.44394e-09
5.24493e-07
1.29744e-09
5.23518e-07
9.74912e-10
5.22633e-07
8.84831e-10
5.21765e-07
8.67904e-10
5.21082e-07
6.82531e-10
5.20553e-07
5.29518e-10
5.2003e-07
5.2311e-10
5.19584e-07
4.46189e-10
5.19255e-07
3.28448e-10
5.18986e-07
2.68657e-10
5.18753e-07
2.33269e-10
5.18581e-07
1.7227e-10
5.18448e-07
1.33097e-10
5.18367e-07
8.06238e-11
5.18281e-07
8.65238e-11
5.18247e-07
3.33343e-11
5.18202e-07
4.48831e-11
5.18179e-07
2.39531e-11
5.18147e-07
3.13037e-11
5.181e-07
4.71914e-11
5.1803e-07
7.04811e-11
5.17843e-07
1.86507e-10
7.12015e-10
4.16584e-06
6.18354e-08
4.16981e-06
9.06273e-08
4.16422e-06
1.05578e-07
4.15414e-06
1.08543e-07
4.14306e-06
1.0933e-07
4.13087e-06
1.11619e-07
4.11652e-06
1.15498e-07
4.0994e-06
1.20094e-07
4.07933e-06
1.24791e-07
4.05625e-06
1.29592e-07
4.03004e-06
1.34475e-07
4.00055e-06
1.39678e-07
3.96757e-06
1.45086e-07
3.93095e-06
1.50569e-07
3.89054e-06
1.56237e-07
3.84611e-06
1.61905e-07
3.7977e-06
1.67322e-07
3.74512e-06
1.72763e-07
3.68824e-06
1.78117e-07
3.6272e-06
1.82633e-07
3.56218e-06
1.86096e-07
3.49365e-06
1.87938e-07
3.42231e-06
1.86987e-07
3.34928e-06
1.82319e-07
3.27607e-06
1.72583e-07
3.20444e-06
1.57655e-07
3.13649e-06
1.37724e-07
3.07343e-06
1.15604e-07
3.01631e-06
9.42854e-08
2.96485e-06
7.70654e-08
2.91737e-06
6.55431e-08
2.8727e-06
5.79876e-08
2.82964e-06
5.37179e-08
2.78771e-06
5.11354e-08
2.7471e-06
4.89825e-08
2.70696e-06
4.84157e-08
2.66728e-06
4.83579e-08
2.62795e-06
4.85539e-08
2.58848e-06
4.91949e-08
2.54969e-06
4.88707e-08
2.51161e-06
4.84777e-08
2.47362e-06
4.85876e-08
2.4361e-06
4.8351e-08
2.39898e-06
4.8135e-08
2.36234e-06
4.73985e-08
2.32653e-06
4.63682e-08
2.29126e-06
4.59537e-08
2.25683e-06
4.47892e-08
2.22342e-06
4.33692e-08
2.19055e-06
4.2608e-08
2.15849e-06
4.15553e-08
2.12761e-06
4.02065e-08
2.09755e-06
3.88054e-08
2.06809e-06
3.79359e-08
2.04002e-06
3.652e-08
2.01371e-06
3.38632e-08
1.98814e-06
3.26478e-08
1.96295e-06
3.24816e-08
1.93913e-06
3.0697e-08
1.91687e-06
2.86857e-08
1.89574e-06
2.71318e-08
1.87546e-06
2.56091e-08
1.85591e-06
2.49093e-08
1.83762e-06
2.37584e-08
1.82108e-06
2.11091e-08
1.80572e-06
1.8998e-08
1.79083e-06
1.87365e-08
1.77679e-06
1.81272e-08
1.76421e-06
1.58843e-08
1.75276e-06
1.4111e-08
1.74197e-06
1.35395e-08
1.73206e-06
1.2491e-08
1.72316e-06
1.10164e-08
1.71503e-06
1.01214e-08
1.70767e-06
9.12379e-09
1.70104e-06
8.10773e-09
1.69498e-06
7.50983e-09
1.68958e-06
6.69006e-09
1.68489e-06
5.66432e-09
1.68069e-06
5.08661e-09
1.67693e-06
4.6314e-09
1.67368e-06
3.92984e-09
1.67085e-06
3.35686e-09
1.66833e-06
3.04394e-09
1.66617e-06
2.61258e-09
1.66435e-06
2.14837e-09
1.6628e-06
1.81169e-09
1.6615e-06
1.537e-09
1.66044e-06
1.23153e-09
1.65958e-06
9.9597e-10
1.65891e-06
7.49822e-10
1.65836e-06
6.38317e-10
1.65797e-06
4.17033e-10
1.65765e-06
3.66812e-10
1.65745e-06
2.21e-10
1.65727e-06
2.16064e-10
1.65715e-06
1.61701e-10
1.65699e-06
2.33867e-10
1.65681e-06
3.6395e-10
1.59265e-09
4.49846e-06
5.99289e-08
4.50443e-06
8.46532e-08
4.50792e-06
1.02098e-07
4.5073e-06
1.09159e-07
4.50564e-06
1.1099e-07
4.50484e-06
1.12415e-07
4.5047e-06
1.15643e-07
4.50453e-06
1.20258e-07
4.50382e-06
1.25509e-07
4.50241e-06
1.30996e-07
4.50022e-06
1.36663e-07
4.49721e-06
1.42691e-07
4.49323e-06
1.49071e-07
4.48809e-06
1.55704e-07
4.48174e-06
1.6259e-07
4.47386e-06
1.69777e-07
4.46447e-06
1.76712e-07
4.45336e-06
1.83879e-07
4.44037e-06
1.91109e-07
4.42543e-06
1.97571e-07
4.40847e-06
2.03055e-07
4.38964e-06
2.06766e-07
4.36872e-06
2.07912e-07
4.34595e-06
2.05086e-07
4.32147e-06
1.97067e-07
4.29551e-06
1.83613e-07
4.26863e-06
1.646e-07
4.24135e-06
1.42887e-07
4.21464e-06
1.20993e-07
4.1892e-06
1.02505e-07
4.16463e-06
9.01112e-08
4.14051e-06
8.21117e-08
4.11625e-06
7.79831e-08
4.09167e-06
7.57151e-08
4.06689e-06
7.37609e-08
4.04156e-06
7.37452e-08
4.01574e-06
7.41803e-08
3.98932e-06
7.49675e-08
3.96215e-06
7.63624e-08
3.93448e-06
7.65435e-08
3.90637e-06
7.65899e-08
3.87773e-06
7.72263e-08
3.84831e-06
7.77744e-08
3.81835e-06
7.80968e-08
3.78791e-06
7.78335e-08
3.75687e-06
7.74121e-08
3.72557e-06
7.72499e-08
3.69396e-06
7.64009e-08
3.6623e-06
7.50318e-08
3.63062e-06
7.42821e-08
3.5984e-06
7.37821e-08
3.56641e-06
7.21914e-08
3.53454e-06
7.06757e-08
3.50195e-06
7.05282e-08
3.4699e-06
6.85682e-08
3.43884e-06
6.49264e-08
3.40766e-06
6.38257e-08
3.3766e-06
6.35367e-08
3.34618e-06
6.11212e-08
3.31629e-06
5.85714e-08
3.28731e-06
5.61142e-08
3.25899e-06
5.39319e-08
3.23063e-06
5.32637e-08
3.20317e-06
5.1222e-08
3.17762e-06
4.66553e-08
3.15296e-06
4.36671e-08
3.1284e-06
4.32921e-08
3.10507e-06
4.14575e-08
3.08341e-06
3.7548e-08
3.0627e-06
3.48212e-08
3.0429e-06
3.33372e-08
3.02435e-06
3.10401e-08
3.00695e-06
2.84147e-08
2.99074e-06
2.63365e-08
2.97576e-06
2.41009e-08
2.96174e-06
2.21306e-08
2.94865e-06
2.06002e-08
2.93673e-06
1.86086e-08
2.92588e-06
1.65062e-08
2.91593e-06
1.5045e-08
2.90691e-06
1.36519e-08
2.89881e-06
1.2023e-08
2.89149e-06
1.06841e-08
2.88485e-06
9.68353e-09
2.87896e-06
8.50156e-09
2.87375e-06
7.35475e-09
2.86918e-06
6.38499e-09
2.86516e-06
5.55243e-09
2.86172e-06
4.67254e-09
2.85874e-06
3.97956e-09
2.85624e-06
3.24828e-09
2.85408e-06
2.79544e-09
2.85236e-06
2.13501e-09
2.85088e-06
1.84901e-09
2.84979e-06
1.31497e-09
2.84884e-06
1.15966e-09
2.84819e-06
8.11667e-10
2.8476e-06
8.29878e-10
2.84719e-06
7.69873e-10
2.42942e-09
4.85921e-06
5.97136e-08
4.86358e-06
8.02818e-08
4.86821e-06
9.74692e-08
4.86955e-06
1.07819e-07
4.86884e-06
1.11698e-07
4.86857e-06
1.12691e-07
4.86906e-06
1.1515e-07
4.87032e-06
1.18996e-07
4.87179e-06
1.24038e-07
4.87318e-06
1.29607e-07
4.87442e-06
1.35429e-07
4.87555e-06
1.41562e-07
4.8766e-06
1.48016e-07
4.87749e-06
1.54812e-07
4.8783e-06
1.61784e-07
4.87885e-06
1.69229e-07
4.8792e-06
1.76358e-07
4.87932e-06
1.83757e-07
4.87916e-06
1.91267e-07
4.87875e-06
1.97986e-07
4.87804e-06
2.03766e-07
4.87715e-06
2.07651e-07
4.87576e-06
2.0931e-07
4.87365e-06
2.07195e-07
4.87067e-06
2.00044e-07
4.86639e-06
1.87891e-07
4.86058e-06
1.70408e-07
4.8533e-06
1.50167e-07
4.84504e-06
1.29251e-07
4.83661e-06
1.10935e-07
4.8283e-06
9.84236e-08
4.81998e-06
9.04286e-08
4.8115e-06
8.64688e-08
4.80268e-06
8.45393e-08
4.79354e-06
8.28997e-08
4.78404e-06
8.32394e-08
4.77423e-06
8.39963e-08
4.76408e-06
8.51117e-08
4.75346e-06
8.6982e-08
4.74238e-06
8.76253e-08
4.73083e-06
8.81451e-08
4.71886e-06
8.91946e-08
4.70631e-06
9.03198e-08
4.69318e-06
9.12255e-08
4.67954e-06
9.14751e-08
4.66509e-06
9.18624e-08
4.65004e-06
9.22993e-08
4.63443e-06
9.20154e-08
4.6182e-06
9.12542e-08
4.60172e-06
9.07621e-08
4.58457e-06
9.09317e-08
4.56699e-06
8.97753e-08
4.54926e-06
8.84093e-08
4.53062e-06
8.91633e-08
4.5116e-06
8.75905e-08
4.49271e-06
8.38203e-08
4.47315e-06
8.33822e-08
4.45309e-06
8.35965e-08
4.43296e-06
8.12523e-08
4.41258e-06
7.89507e-08
4.39229e-06
7.64006e-08
4.37208e-06
7.41453e-08
4.3514e-06
7.39483e-08
4.33062e-06
7.19929e-08
4.31055e-06
6.6727e-08
4.29068e-06
6.35364e-08
4.27037e-06
6.36079e-08
4.25036e-06
6.14646e-08
4.23121e-06
5.67018e-08
4.21235e-06
5.36764e-08
4.19378e-06
5.1909e-08
4.1759e-06
4.89227e-08
4.15853e-06
4.57786e-08
4.1417e-06
4.31658e-08
4.12572e-06
4.00863e-08
4.11039e-06
3.74615e-08
4.09564e-06
3.53498e-08
4.08166e-06
3.25859e-08
4.06844e-06
2.97248e-08
4.05585e-06
2.76382e-08
4.04407e-06
2.54268e-08
4.03314e-06
2.29523e-08
4.02294e-06
2.08839e-08
4.01336e-06
1.92698e-08
4.0045e-06
1.73601e-08
3.99628e-06
1.55727e-08
3.98879e-06
1.38758e-08
3.98194e-06
1.24025e-08
3.97585e-06
1.07659e-08
3.97033e-06
9.49742e-09
3.96547e-06
8.10443e-09
3.96108e-06
7.18919e-09
3.95729e-06
5.91977e-09
3.95391e-06
5.23382e-09
3.95108e-06
4.14287e-09
3.94865e-06
3.59677e-09
3.94665e-06
2.80189e-09
3.945e-06
2.48784e-09
3.94366e-06
2.10704e-09
3.66509e-09
5.24893e-06
5.98968e-08
5.25215e-06
7.70599e-08
5.25624e-06
9.33746e-08
5.25884e-06
1.05226e-07
5.25932e-06
1.11214e-07
5.25908e-06
1.12933e-07
5.25928e-06
1.14946e-07
5.26038e-06
1.17892e-07
5.26204e-06
1.22377e-07
5.26379e-06
1.27857e-07
5.26546e-06
1.33761e-07
5.2671e-06
1.39926e-07
5.26876e-06
1.46355e-07
5.27042e-06
1.5315e-07
5.27219e-06
1.60017e-07
5.27401e-06
1.67409e-07
5.2759e-06
1.74467e-07
5.27796e-06
1.81693e-07
5.28018e-06
1.89049e-07
5.28264e-06
1.95526e-07
5.28535e-06
2.01055e-07
5.2884e-06
2.04601e-07
5.29157e-06
2.06144e-07
5.29456e-06
2.04204e-07
5.29715e-06
1.97454e-07
5.29885e-06
1.86186e-07
5.29924e-06
1.7002e-07
5.29821e-06
1.51197e-07
5.29599e-06
1.31467e-07