/*--------------------------------*- C++ -*----------------------------------*\
| =========                 |                                                 |
| \\      /  F ield         | OpenFOAM: The Open Source CFD Toolbox           |
|  \\    /   O peration     | Version:  v1906                                 |
|   \\  /    A nd           | Web:      www.OpenFOAM.com                      |
|    \\/     M anipulation  |                                                 |
\*---------------------------------------------------------------------------*/
FoamFile
{
    version     2.0;
    format      ascii;
    class       volVectorField;
    location    "0.7";
    object      U;
}
// * * * * * * * * * * * * * * * * * * * * * * * * * * * * * * * * * * * * * //

dimensions      [0 1 -1 0 0 0 0];


internalField   nonuniform List<vector> 
4800
(
(0.960399 -9.36792e-05 0)
(1.03862 -2.96151e-05 0)
(0.964147 0.000507281 0)
(1.03583 -0.000209477 0)
(0.967321 -9.45105e-05 0)
(1.03162 -0.000352707 0)
(0.970369 -3.84477e-05 0)
(1.028 -0.000579173 0)
(0.972848 0.000300343 0)
(1.0251 -0.000288948 0)
(0.976227 0.00055106 0)
(1.02242 3.60378e-05 0)
(0.97931 0.000544497 0)
(1.01989 -8.32852e-05 0)
(0.981808 0.000411417 0)
(1.01731 -0.000279531 0)
(0.983579 0.000217055 0)
(1.01426 -0.000429105 0)
(0.984367 0.000281174 0)
(1.01085 0.00061174 0)
(0.982714 -0.000146484 0)
(1.01447 2.25054e-05 0)
(0.98677 0.000459115 0)
(1.01182 -0.000171981 0)
(0.989878 -9.21559e-05 0)
(1.00831 -0.00033529 0)
(0.992323 -3.79731e-05 0)
(1.00568 -0.000613856 0)
(0.993876 0.000331791 0)
(1.00402 -0.000361086 0)
(0.995915 0.000586369 0)
(1.00272 -6.7744e-05 0)
(0.997488 0.000554156 0)
(1.00175 -0.000215414 0)
(0.998409 0.000409334 0)
(1.0008 -0.000364117 0)
(0.998606 0.000278323 0)
(0.999432 -0.000174967 0)
(0.998099 0.0010528 0)
(0.997855 0.00188579 0)
(0.995965 -5.18951e-05 0)
(1.00249 -9.02451e-05 0)
(0.997422 0.000501973 0)
(1.0021 -0.00022369 0)
(0.998379 -3.78067e-05 0)
(1.00084 -0.000322644 0)
(0.99893 -3.6351e-05 0)
(1.0001 -0.000494126 0)
(0.998854 0.000178846 0)
(1.00004 -0.000194429 0)
(0.999463 0.000314848 0)
(1 0.000137651 0)
(0.999855 0.000252175 0)
(1.00003 1.26946e-05 0)
(0.999927 0.00010914 0)
(0.999849 -6.53576e-05 0)
(0.999572 0.000121131 0)
(0.999183 0.00054094 0)
(0.998793 0.00140307 0)
(0.998237 0.00235578 0)
(0.999459 -6.9899e-05 0)
(1.00006 -5.76839e-05 0)
(0.999743 0.000487983 0)
(1.00053 -0.00021585 0)
(0.999915 -6.7842e-05 0)
(1.00002 -0.000286934 0)
(1.00002 -0.000104969 0)
(0.999753 -0.000429662 0)
(0.999566 7.06124e-05 0)
(0.999897 -8.76388e-05 0)
(0.999955 0.000198337 0)
(1.00001 0.000212745 0)
(1.00016 0.000139369 0)
(1.00012 5.00062e-05 0)
(1.00014 3.99742e-05 0)
(0.999995 3.22878e-05 0)
(0.999813 0.000312102 0)
(0.999485 0.000887392 0)
(0.999145 0.00160045 0)
(0.998658 0.00244038 0)
(1 -4.03493e-05 0)
(0.999807 -6.74323e-05 0)
(1.00008 0.000430537 0)
(1.00041 -0.000165225 0)
(1.0001 -0.000105873 0)
(1.00003 -0.00019648 0)
(1.00021 -0.000194564 0)
(0.99985 -0.000287377 0)
(0.999713 -6.11086e-05 0)
(0.999952 -1.30755e-05 0)
(1.00008 0.00011031 0)
(1.0001 0.000156509 0)
(1.00026 6.71862e-05 0)
(1.00022 1.24823e-05 0)
(1.00024 5.97687e-05 0)
(1.00014 0.000215252 0)
(1.00001 0.000673174 0)
(0.999713 0.00126328 0)
(0.999406 0.00184687 0)
(0.998963 0.00261368 0)
(1.00007 -5.30568e-05 0)
(0.999794 -3.79247e-05 0)
(1.00014 0.000373334 0)
(1.00038 -0.000107179 0)
(1.00012 -0.000183299 0)
(1.00003 -0.00010213 0)
(1.00025 -0.000286466 0)
(0.999896 -0.000223536 0)
(0.999764 -0.000103609 0)
(0.999959 -5.4166e-05 0)
(1.00011 6.5115e-05 0)
(1.00012 0.000112834 0)
(1.00028 1.22261e-05 0)
(1.00027 6.40009e-05 0)
(1.0003 0.000176933 0)
(1.00025 0.000515488 0)
(1.00015 0.000969027 0)
(0.999861 0.00148649 0)
(0.999594 0.00198813 0)
(0.999187 0.00267194 0)
(1.00009 -3.90693e-05 0)
(0.999795 -1.88202e-05 0)
(1.00016 0.00030381 0)
(1.00036 -5.97878e-05 0)
(1.00012 -0.000214414 0)
(1.00003 -7.71055e-05 0)
(1.00026 -0.000258674 0)
(0.999914 -0.000280005 0)
(0.999783 -6.18482e-05 0)
(0.999964 -0.000136305 0)
(1.00011 1.40426e-05 0)
(1.00012 6.66043e-05 0)
(1.00028 1.20629e-05 0)
(1.0003 0.00011196 0)
(1.00037 0.000420682 0)
(1.00034 0.000786972 0)
(1.00026 0.00116664 0)
(0.999983 0.00162605 0)
(0.999756 0.00210443 0)
(0.999389 0.00272112 0)
(1.0001 -4.80257e-05 0)
(0.999799 2.74346e-05 0)
(1.00016 0.000220562 0)
(1.00033 -1.92913e-06 0)
(1.00012 -0.000244386 0)
(1.00003 -7.58736e-05 0)
(1.00025 -0.000220243 0)
(0.999929 -0.000323631 0)
(0.999797 -8.27277e-05 0)
(0.999964 -0.000123859 0)
(1.00013 -7.55273e-05 0)
(1.00013 8.14743e-05 0)
(1.00029 7.89616e-05 0)
(1.00036 0.000297743 0)
(1.00045 0.000671139 0)
(1.00042 0.000969386 0)
(1.00036 0.0012856 0)
(1.00011 0.00171909 0)
(0.999913 0.0021952 0)
(0.999587 0.0027653 0)
(1.00011 -3.90288e-05 0)
(0.999804 5.25244e-05 0)
(1.00016 0.000173556 0)
(1.00031 -1.23788e-05 0)
(1.00012 -0.000193164 0)
(1.00003 -0.000147848 0)
(1.00024 -0.000180843 0)
(0.999934 -0.000321163 0)
(0.999811 -0.000164961 0)
(0.999965 -0.000128384 0)
(1.00014 -9.057e-05 0)
(1.00015 6.13759e-05 0)
(1.00032 0.000231374 0)
(1.00042 0.000501242 0)
(1.00052 0.000834921 0)
(1.00049 0.00109596 0)
(1.00046 0.00138611 0)
(1.00024 0.0018103 0)
(1.00008 0.00227878 0)
(0.999786 0.00281324 0)
(1.00011 -4.32994e-05 0)
(0.99981 8.79566e-05 0)
(1.00016 0.000151366 0)
(1.0003 -4.92488e-05 0)
(1.00011 -0.000155937 0)
(1.00002 -0.0001668 0)
(1.00023 -0.000229891 0)
(0.999932 -0.000274259 0)
(0.999821 -0.000208472 0)
(0.999974 -0.000176735 0)
(1.00016 -4.314e-05 0)
(1.00018 0.000154242 0)
(1.00037 0.000389872 0)
(1.00049 0.000654578 0)
(1.00059 0.000945219 0)
(1.00056 0.00120512 0)
(1.00056 0.00148585 0)
(1.00037 0.00189381 0)
(1.00024 0.00234645 0)
(0.999981 0.00284493 0)
(1.00011 -3.43498e-05 0)
(0.999815 9.30825e-05 0)
(1.00015 0.000170422 0)
(1.00028 -0.000126147 0)
(1.0001 -0.000127066 0)
(1.00001 -0.000152267 0)
(1.00022 -0.000293477 0)
(0.999935 -0.00027141 0)
(0.999821 -0.000181874 0)
(0.999989 -0.000192753 0)
(1.00019 1.0054e-05 0)
(1.00023 0.000313633 0)
(1.00042 0.000554758 0)
(1.00054 0.000776763 0)
(1.00065 0.0010335 0)
(1.00063 0.0012971 0)
(1.00066 0.00157771 0)
(1.00051 0.00196715 0)
(1.00041 0.00240377 0)
(1.00018 0.00286946 0)
(1.00011 -3.27966e-05 0)
(0.999823 8.85309e-05 0)
(1.00013 0.000198614 0)
(1.00026 -0.000163843 0)
(1.0001 -0.000166193 0)
(0.999999 -0.000109387 0)
(1.00021 -0.000304748 0)
(0.999945 -0.000332393 0)
(0.999828 -0.000132031 0)
(1 -0.000121704 0)
(1.00025 6.23147e-05 0)
(1.00029 0.000410078 0)
(1.00047 0.00065801 0)
(1.0006 0.000857038 0)
(1.00072 0.00110723 0)
(1.00071 0.00138292 0)
(1.00077 0.00167085 0)
(1.00066 0.00204807 0)
(1.00058 0.00246459 0)
(1.00037 0.00289966 0)
(1.00011 -2.45173e-05 0)
(0.999833 6.50061e-05 0)
(1.00011 0.000218607 0)
(1.00024 -0.000130579 0)
(1.00011 -0.000254809 0)
(0.999989 -9.36407e-05 0)
(1.00018 -0.000267756 0)
(0.99996 -0.000355406 0)
(0.999851 -0.000123145 0)
(1.00002 2.52583e-05 0)
(1.0003 0.000183605 0)
(1.00036 0.000484398 0)
(1.00052 0.000727656 0)
(1.00066 0.000927582 0)
(1.0008 0.00117274 0)
(1.0008 0.00145284 0)
(1.00088 0.00173625 0)
(1.00081 0.00209974 0)
(1.00075 0.00249352 0)
(1.00056 0.00290151 0)
(1.0001 -2.09255e-05 0)
(0.999846 4.56507e-05 0)
(1.0001 0.000211984 0)
(1.0002 -7.25003e-05 0)
(1.00011 -0.000307259 0)
(0.999993 -0.000164387 0)
(1.00016 -0.000203508 0)
(0.999968 -0.000299103 0)
(0.999896 -0.000124905 0)
(1.00006 0.000118774 0)
(1.00035 0.000320297 0)
(1.00042 0.000584817 0)
(1.00058 0.000813038 0)
(1.00072 0.00100909 0)
(1.00088 0.00124459 0)
(1.0009 0.00152648 0)
(1.001 0.00180152 0)
(1.00096 0.00214729 0)
(1.00093 0.00251986 0)
(1.00075 0.00290002 0)
(1.0001 -2.03392e-05 0)
(0.999858 4.14231e-05 0)
(1.00009 0.000166118 0)
(1.00016 -8.56827e-06 0)
(1.00009 -0.000284636 0)
(1 -0.000252815 0)
(1.00016 -0.000206589 0)
(0.999975 -0.000176166 0)
(0.999935 -5.21252e-05 0)
(1.00012 0.000149913 0)
(1.00041 0.000393526 0)
(1.00048 0.000666333 0)
(1.00064 0.000890746 0)
(1.00079 0.00108185 0)
(1.00097 0.00130997 0)
(1.001 0.00159466 0)
(1.00113 0.00186823 0)
(1.00112 0.00219336 0)
(1.00111 0.00254499 0)
(1.00095 0.00289825 0)
(1.0001 -2.09856e-05 0)
(0.999868 4.89746e-05 0)
(1.00009 0.00011041 0)
(1.00013 1.64784e-05 0)
(1.00007 -0.000208284 0)
(1.00001 -0.000284731 0)
(1.00018 -0.000280591 0)
(1 -8.72615e-05 0)
(0.999967 0.000111599 0)
(1.00017 0.000245157 0)
(1.00048 0.000434663 0)
(1.00056 0.000714262 0)
(1.0007 0.000952248 0)
(1.00086 0.00114845 0)
(1.00106 0.0013661 0)
(1.00112 0.00164932 0)
(1.00126 0.0019237 0)
(1.00128 0.00222633 0)
(1.00129 0.00255295 0)
(1.00114 0.00288006 0)
(1.0001 -2.36732e-05 0)
(0.999873 5.78768e-05 0)
(1.00008 7.19688e-05 0)
(1.00011 -7.98447e-06 0)
(1.00004 -0.000122849 0)
(0.99999 -0.000224627 0)
(1.0002 -0.000312137 0)
(1.00006 -9.84615e-05 0)
(1.00001 0.000243907 0)
(1.0002 0.000406377 0)
(1.00054 0.000518563 0)
(1.00064 0.000753901 0)
(1.00078 0.000997887 0)
(1.00093 0.00120324 0)
(1.00116 0.00141201 0)
(1.00124 0.00168655 0)
(1.0014 0.0019603 0)
(1.00144 0.00224779 0)
(1.00147 0.00254925 0)
(1.00133 0.00285308 0)
(1.0001 -1.96416e-05 0)
(0.999877 4.8755e-05 0)
(1.00007 6.77493e-05 0)
(1.0001 -5.76398e-05 0)
(1.00003 -8.48051e-05 0)
(0.999966 -0.00011626 0)
(1.0002 -0.000240191 0)
(1.00013 -0.000137631 0)
(1.00009 0.000263683 0)
(1.00024 0.000526228 0)
(1.00058 0.000644519 0)
(1.00071 0.000822547 0)
(1.00086 0.00104678 0)
(1.00101 0.00125257 0)
(1.00126 0.00145604 0)
(1.00137 0.00171624 0)
(1.00154 0.00198249 0)
(1.0016 0.00225908 0)
(1.00165 0.00253711 0)
(1.00153 0.00281627 0)
(1.0001 -1.61784e-05 0)
(0.999883 2.77576e-05 0)
(1.00006 7.47292e-05 0)
(1.00008 -7.37614e-05 0)
(1.00003 -9.89095e-05 0)
(0.999954 -7.92531e-06 0)
(1.00019 -9.88998e-05 0)
(1.00019 -9.18938e-05 0)
(1.00019 0.000226979 0)
(1.00031 0.00055815 0)
(1.00063 0.000734701 0)
(1.00077 0.000909716 0)
(1.00094 0.00111131 0)
(1.0011 0.0013101 0)
(1.00137 0.00150023 0)
(1.0015 0.00174284 0)
(1.00169 0.0019955 0)
(1.00176 0.00225469 0)
(1.00183 0.00251371 0)
(1.00172 0.00276594 0)
(1.0001 -1.20447e-05 0)
(0.999891 1.05346e-05 0)
(1.00005 6.6422e-05 0)
(1.00006 -4.70605e-05 0)
(1.00004 -0.000109732 0)
(0.999965 4.21214e-05 0)
(1.00018 5.34449e-05 0)
(1.00022 4.0744e-05 0)
(1.00029 0.000246036 0)
(1.0004 0.000544406 0)
(1.0007 0.000769827 0)
(1.00085 0.000971322 0)
(1.00102 0.00117781 0)
(1.00118 0.0013714 0)
(1.00147 0.00154494 0)
(1.00163 0.00176815 0)
(1.00184 0.00200691 0)
(1.00193 0.00224533 0)
(1.00201 0.00248784 0)
(1.00191 0.00271609 0)
(1.0001 -1.1777e-05 0)
(0.999899 1.35729e-06 0)
(1.00005 4.46311e-05 0)
(1.00004 -1.12121e-05 0)
(1.00005 -7.31804e-05 0)
(0.999997 4.93269e-05 0)
(1.0002 0.000157572 0)
(1.00025 0.000208654 0)
(1.00036 0.000344083 0)
(1.00049 0.000559397 0)
(1.00079 0.00076948 0)
(1.00094 0.0009924 0)
(1.00112 0.00121889 0)
(1.00128 0.00142349 0)
(1.00158 0.00159168 0)
(1.00177 0.00179364 0)
(1.00199 0.00201385 0)
(1.00209 0.00223455 0)
(1.00218 0.00245672 0)
(1.00209 0.00266391 0)
(1.0001 -1.20745e-05 0)
(0.999905 1.93678e-06 0)
(1.00005 2.28743e-05 0)
(1.00004 1.50784e-05 0)
(1.00007 -4.97113e-06 0)
(1.00003 8.14684e-05 0)
(1.00023 0.000204802 0)
(1.00029 0.000321833 0)
(1.00041 0.00045933 0)
(1.00056 0.000625715 0)
(1.00088 0.000787071 0)
(1.00105 0.000994265 0)
(1.00123 0.00122799 0)
(1.00138 0.0014479 0)
(1.00169 0.00162114 0)
(1.0019 0.00180754 0)
(1.00214 0.00200716 0)
(1.00226 0.00221222 0)
(1.00235 0.00241496 0)
(1.00227 0.00260232 0)
(1.0001 -1.19494e-05 0)
(0.99991 4.45278e-06 0)
(1.00006 1.81008e-05 0)
(1.00004 2.77832e-05 0)
(1.00008 6.22185e-05 0)
(1.00007 0.000148783 0)
(1.00028 0.00024819 0)
(1.00035 0.000384096 0)
(1.00048 0.000556995 0)
(1.00062 0.000711638 0)
(1.00096 0.00083871 0)
(1.00116 0.00100328 0)
(1.00136 0.00122219 0)
(1.0015 0.00145147 0)
(1.0018 0.00163103 0)
(1.00203 0.00181057 0)
(1.00229 0.00199565 0)
(1.00242 0.00218235 0)
(1.00252 0.00236711 0)
(1.00245 0.00253468 0)
(1.0001 -8.23446e-06 0)
(0.999915 6.65775e-06 0)
(1.00006 2.97002e-05 0)
(1.00005 3.97679e-05 0)
(1.00011 0.000110272 0)
(1.0001 0.00022849 0)
(1.00032 0.000309667 0)
(1.00041 0.000435245 0)
(1.00055 0.000613187 0)
(1.00069 0.00078931 0)
(1.00102 0.000907977 0)
(1.00125 0.00104001 0)
(1.00149 0.00122234 0)
(1.00163 0.00144173 0)
(1.00193 0.00162329 0)
(1.00216 0.00179288 0)
(1.00244 0.00196562 0)
(1.00258 0.00213768 0)
(1.00269 0.00230518 0)
(1.00261 0.00245766 0)
(1.0001 -5.49943e-06 0)
(0.99992 1.62624e-05 0)
(1.00006 4.70289e-05 0)
(1.00007 6.79176e-05 0)
(1.00014 0.000147677 0)
(1.00014 0.000286866 0)
(1.00036 0.000383554 0)
(1.00047 0.000488093 0)
(1.00063 0.000657464 0)
(1.00076 0.000836241 0)
(1.00108 0.00096745 0)
(1.00133 0.00108532 0)
(1.0016 0.00123384 0)
(1.00176 0.00142667 0)
(1.00206 0.00160821 0)
(1.0023 0.00176687 0)
(1.00259 0.00192133 0)
(1.00274 0.0020818 0)
(1.00285 0.00223439 0)
(1.00277 0.00237392 0)
(1.0001 1.92811e-06 0)
(0.999927 2.23646e-05 0)
(1.00007 7.14663e-05 0)
(1.00008 0.000104146 0)
(1.00018 0.000186033 0)
(1.00019 0.00033479 0)
(1.0004 0.000448222 0)
(1.00053 0.000549249 0)
(1.00071 0.0006968 0)
(1.00084 0.000868443 0)
(1.00115 0.00100361 0)
(1.00141 0.00112373 0)
(1.00171 0.00125214 0)
(1.0019 0.00141268 0)
(1.00219 0.00158366 0)
(1.00243 0.00173515 0)
(1.00273 0.00186983 0)
(1.0029 0.00201227 0)
(1.00301 0.00215179 0)
(1.00293 0.00227733 0)
(1.0001 8.0767e-06 0)
(0.999934 4.02357e-05 0)
(1.00008 9.48911e-05 0)
(1.0001 0.000148755 0)
(1.00022 0.000227739 0)
(1.00024 0.000375392 0)
(1.00045 0.000498895 0)
(1.00058 0.000603644 0)
(1.00079 0.000734194 0)
(1.00092 0.000896739 0)
(1.00123 0.00102992 0)
(1.00148 0.00114502 0)
(1.0018 0.00126778 0)
(1.00201 0.00139965 0)
(1.00232 0.00154674 0)
(1.00255 0.00169175 0)
(1.00286 0.00181371 0)
(1.00304 0.00193439 0)
(1.00316 0.00205739 0)
(1.00308 0.00216903 0)
(1.0001 1.54763e-05 0)
(0.999941 5.91733e-05 0)
(1.00009 0.000123882 0)
(1.00012 0.000189323 0)
(1.00026 0.000277061 0)
(1.00029 0.000412865 0)
(1.0005 0.000543367 0)
(1.00064 0.000650558 0)
(1.00086 0.000770111 0)
(1.001 0.000915023 0)
(1.0013 0.00104826 0)
(1.00156 0.00115164 0)
(1.00189 0.00126593 0)
(1.00211 0.00138708 0)
(1.00244 0.00150369 0)
(1.00268 0.00163521 0)
(1.00298 0.00174815 0)
(1.00317 0.00185032 0)
(1.00329 0.00195536 0)
(1.00322 0.00205167 0)
(1.0001 2.45584e-05 0)
(0.999947 7.85147e-05 0)
(1.00011 0.000155288 0)
(1.00014 0.000231169 0)
(1.0003 0.000322687 0)
(1.00034 0.000453054 0)
(1.00055 0.000579093 0)
(1.00069 0.000688551 0)
(1.00093 0.000801475 0)
(1.00108 0.000928798 0)
(1.00137 0.00105717 0)
(1.00162 0.00115591 0)
(1.00197 0.00125039 0)
(1.0022 0.00136473 0)
(1.00254 0.0014607 0)
(1.00279 0.00156864 0)
(1.00308 0.00167093 0)
(1.00328 0.00175587 0)
(1.00341 0.00184636 0)
(1.00335 0.00192435 0)
(1.00009 3.22996e-05 0)
(0.999954 0.000100798 0)
(1.00012 0.000186269 0)
(1.00016 0.000272459 0)
(1.00033 0.000366054 0)
(1.00039 0.000490247 0)
(1.00059 0.000613413 0)
(1.00073 0.000719652 0)
(1.00098 0.000825814 0)
(1.00115 0.000938016 0)
(1.00143 0.00105464 0)
(1.00168 0.00115183 0)
(1.00204 0.00123048 0)
(1.00228 0.00132715 0)
(1.00262 0.00141251 0)
(1.00289 0.00149668 0)
(1.00318 0.0015853 0)
(1.00338 0.00165348 0)
(1.00351 0.00172999 0)
(1.00345 0.0017915 0)
(1.00009 4.07265e-05 0)
(0.99996 0.000121168 0)
(1.00013 0.000216847 0)
(1.00017 0.000310228 0)
(1.00036 0.000406141 0)
(1.00043 0.000522974 0)
(1.00064 0.000642712 0)
(1.00078 0.000746576 0)
(1.00103 0.000845515 0)
(1.0012 0.000944673 0)
(1.00149 0.00104626 0)
(1.00173 0.00113675 0)
(1.00209 0.00120575 0)
(1.00235 0.00128254 0)
(1.00269 0.00135358 0)
(1.00296 0.00141838 0)
(1.00325 0.0014905 0)
(1.00345 0.00154278 0)
(1.00359 0.00160237 0)
(1.00353 0.00164978 0)
(1.00009 4.81379e-05 0)
(0.999965 0.000140365 0)
(1.00014 0.000243311 0)
(1.00019 0.000343847 0)
(1.00039 0.000441276 0)
(1.00047 0.000551932 0)
(1.00067 0.000665983 0)
(1.00081 0.000765748 0)
(1.00107 0.000859749 0)
(1.00125 0.000947081 0)
(1.00154 0.00103388 0)
(1.00177 0.00111364 0)
(1.00213 0.00117088 0)
(1.00239 0.00123208 0)
(1.00273 0.00128791 0)
(1.00301 0.00133167 0)
(1.0033 0.00138765 0)
(1.0035 0.00142486 0)
(1.00364 0.00146686 0)
(1.00358 0.00150011 0)
(1.00009 5.43294e-05 0)
(0.99997 0.000156024 0)
(1.00015 0.000265239 0)
(1.0002 0.000370659 0)
(1.00041 0.000470104 0)
(1.0005 0.000573547 0)
(1.00071 0.000681897 0)
(1.00084 0.000777642 0)
(1.0011 0.000866861 0)
(1.00128 0.000945445 0)
(1.00157 0.00101708 0)
(1.00179 0.00108702 0)
(1.00214 0.00113136 0)
(1.00241 0.00117336 0)
(1.00274 0.00121841 0)
(1.00303 0.00123827 0)
(1.00332 0.00127414 0)
(1.00351 0.00129613 0)
(1.00366 0.00131855 0)
(1.0036 0.00133818 0)
(1.00009 5.84508e-05 0)
(0.999974 0.00016777 0)
(1.00016 0.000280718 0)
(1.00021 0.00038775 0)
(1.00042 0.000489304 0)
(1.00052 0.000587058 0)
(1.00073 0.000689073 0)
(1.00087 0.000780621 0)
(1.00112 0.000865029 0)
(1.00129 0.000939126 0)
(1.00159 0.000998178 0)
(1.0018 0.00105578 0)
(1.00214 0.00109206 0)
(1.00241 0.00110928 0)
(1.00273 0.00114075 0)
(1.00301 0.00114168 0)
(1.00331 0.00114984 0)
(1.00349 0.00115508 0)
(1.00364 0.00115351 0)
(1.00357 0.00115923 0)
(1.00009 6.04645e-05 0)
(0.999977 0.000173048 0)
(1.00016 0.00028695 0)
(1.00022 0.00039418 0)
(1.00043 0.000495914 0)
(1.00054 0.000590337 0)
(1.00075 0.000685242 0)
(1.00089 0.000771875 0)
(1.00114 0.0008508 0)
(1.0013 0.000922983 0)
(1.00159 0.000977634 0)
(1.00179 0.00102275 0)
(1.0021 0.00105778 0)
(1.00237 0.00105645 0)
(1.00268 0.00106378 0)
(1.00294 0.00105074 0)
(1.00324 0.0010247 0)
(1.00341 0.00100541 0)
(1.00356 0.000973821 0)
(1.0035 0.000957523 0)
(1.00009 5.98385e-05 0)
(0.99998 0.000170904 0)
(1.00017 0.000282903 0)
(1.00023 0.000386112 0)
(1.00044 0.000486845 0)
(1.00055 0.000576939 0)
(1.00077 0.000667728 0)
(1.00091 0.000749205 0)
(1.00115 0.000823383 0)
(1.00131 0.0008888 0)
(1.00159 0.000943689 0)
(1.00178 0.000981765 0)
(1.00206 0.00102027 0)
(1.0023 0.00102375 0)
(1.0026 0.00101669 0)
(1.00281 0.00100023 0)
(1.00309 0.000951234 0)
(1.00326 0.000900335 0)
(1.0034 0.000831033 0)
(1.00335 0.000767213 0)
(1.00009 5.58917e-05 0)
(0.999983 0.000160574 0)
(1.00018 0.000265022 0)
(1.00024 0.000361162 0)
(1.00046 0.000455918 0)
(1.00057 0.000542602 0)
(1.00079 0.000628753 0)
(1.00092 0.000708423 0)
(1.00116 0.000780411 0)
(1.00132 0.000840149 0)
(1.00159 0.000887997 0)
(1.00178 0.000910581 0)
(1.00204 0.000925394 0)
(1.00224 0.000920168 0)
(1.00251 0.000891109 0)
(1.00267 0.000863708 0)
(1.00289 0.000815216 0)
(1.003 0.000763704 0)
(1.00309 0.000705949 0)
(1.003 0.000648111 0)
(1.00009 4.94529e-05 0)
(0.999986 0.000141124 0)
(1.00018 0.000232947 0)
(1.00025 0.0003164 0)
(1.00047 0.00039949 0)
(1.00058 0.0004752 0)
(1.00081 0.000552708 0)
(1.00094 0.000624518 0)
(1.00118 0.000695997 0)
(1.00133 0.000756094 0)
(1.00156 0.000811732 0)
(1.00171 0.000844446 0)
(1.00194 0.000860482 0)
(1.0021 0.000857635 0)
(1.00235 0.000821071 0)
(1.00252 0.00076545 0)
(1.00273 0.000689584 0)
(1.00286 0.000591231 0)
(1.00296 0.000487857 0)
(1.00292 0.000377309 0)
(1.00009 4.14875e-05 0)
(0.999989 0.000118601 0)
(1.00019 0.000199246 0)
(1.00025 0.000271775 0)
(1.00048 0.000347009 0)
(1.0006 0.000415923 0)
(1.00083 0.000490509 0)
(1.00097 0.000559683 0)
(1.00121 0.00063491 0)
(1.00136 0.000702463 0)
(1.0016 0.000772764 0)
(1.00174 0.000829186 0)
(1.00195 0.00087127 0)
(1.00204 0.000890694 0)
(1.00219 0.000879523 0)
(1.00224 0.000827382 0)
(1.00231 0.000744061 0)
(1.0023 0.000616992 0)
(1.0023 0.000468408 0)
(1.0022 0.000300069 0)
(1.00009 1.8366e-05 0)
(0.999994 5.42716e-05 0)
(1.0002 9.22074e-05 0)
(1.00027 0.00012795 0)
(1.0005 0.000164534 0)
(1.00063 0.000200456 0)
(1.00087 0.00023873 0)
(1.00102 0.000276911 0)
(1.00127 0.000316711 0)
(1.00143 0.000354104 0)
(1.00166 0.000389182 0)
(1.00178 0.00041734 0)
(1.00196 0.000437611 0)
(1.00201 0.000447507 0)
(1.0021 0.000447179 0)
(1.00206 0.000429956 0)
(1.00204 0.00040079 0)
(1.00192 0.000354116 0)
(1.00182 0.000296289 0)
(1.00166 0.000229136 0)
(0.9847 0.00208289 0)
(0.96046 0.00328789 0)
(0.93609 0.00364403 0)
(0.911275 0.00361374 0)
(0.886003 0.00354461 0)
(0.860346 0.00352337 0)
(0.834383 0.0035283 0)
(0.808045 0.00352752 0)
(0.781288 0.00350908 0)
(0.754067 0.00347448 0)
(0.7264 0.003429 0)
(0.698249 0.00338348 0)
(0.66958 0.00333459 0)
(0.640422 0.00327968 0)
(0.610809 0.00322756 0)
(0.580677 0.00316066 0)
(0.550228 0.00308755 0)
(0.519342 0.00301952 0)
(0.48817 0.00294084 0)
(0.456756 0.00284048 0)
(0.425397 0.00270747 0)
(0.394254 0.00254717 0)
(0.363694 0.0023446 0)
(0.334403 0.00206011 0)
(0.307178 0.00165484 0)
(0.283046 0.00115013 0)
(0.262913 0.000566958 0)
(0.247371 6.12896e-05 0)
(0.236275 -0.000278315 0)
(0.228573 -0.000444876 0)
(0.223111 -0.000496244 0)
(0.21913 -0.000474296 0)
(0.216055 -0.000442862 0)
(0.21349 -0.000395505 0)
(0.211245 -0.000345327 0)
(0.209096 -0.00029162 0)
(0.206916 -0.000235205 0)
(0.204611 -0.000194308 0)
(0.202164 -0.000155395 0)
(0.19961 -0.000116131 0)
(0.196977 -9.29905e-05 0)
(0.194257 -7.22686e-05 0)
(0.191494 -5.20652e-05 0)
(0.188674 -4.08731e-05 0)
(0.18587 -3.00719e-05 0)
(0.183109 -1.8768e-05 0)
(0.180372 -1.00007e-05 0)
(0.177659 -5.53973e-06 0)
(0.17504 -3.72434e-06 0)
(0.172495 6.55372e-07 0)
(0.17001 8.15519e-06 0)
(0.167583 1.09385e-05 0)
(0.165266 7.01553e-06 0)
(0.163012 1.25325e-05 0)
(0.160851 1.92096e-05 0)
(0.158796 1.33124e-05 0)
(0.156897 1.10235e-05 0)
(0.155031 1.77019e-05 0)
(0.153224 1.9041e-05 0)
(0.151493 1.81271e-05 0)
(0.149914 1.47565e-05 0)
(0.148433 1.15061e-05 0)
(0.147053 1.62054e-05 0)
(0.145653 1.88977e-05 0)
(0.14439 1.1838e-05 0)
(0.143308 7.44703e-06 0)
(0.142347 1.16277e-05 0)
(0.141316 1.41976e-05 0)
(0.140393 9.0605e-06 0)
(0.139594 6.30062e-06 0)
(0.138915 8.33135e-06 0)
(0.138214 7.82544e-06 0)
(0.137631 5.43098e-06 0)
(0.137073 5.42046e-06 0)
(0.136623 4.49633e-06 0)
(0.136173 3.35354e-06 0)
(0.135827 3.75963e-06 0)
(0.135446 3.14913e-06 0)
(0.135189 1.65208e-06 0)
(0.134909 1.75287e-06 0)
(0.134725 1.95148e-06 0)
(0.134486 1.0834e-06 0)
(0.134373 5.76665e-07 0)
(0.13419 8.26809e-07 0)
(0.134117 5.82151e-07 0)
(0.133965 2.20738e-07 0)
(0.133943 1.74544e-07 0)
(0.133821 1.92388e-07 0)
(0.133831 4.02284e-08 0)
(0.133727 3.99804e-09 0)
(0.133768 -1.36638e-07 0)
(0.133675 2.89319e-08 0)
(0.133737 -1.87112e-07 0)
(0.133645 8.98915e-10 0)
(0.133723 -8.01277e-08 0)
(0.133626 3.14778e-08 0)
(0.133711 1.37544e-07 0)
(0.133594 2.49311e-07 0)
(0.133686 1.12671e-06 0)
(0.133436 3.13731e-06 0)
(0.997212 0.00406904 0)
(0.996175 0.00589945 0)
(0.994878 0.00654647 0)
(0.99322 0.00650699 0)
(0.991069 0.00635672 0)
(0.988393 0.00629822 0)
(0.985189 0.00632221 0)
(0.981411 0.00637986 0)
(0.976986 0.00643546 0)
(0.971862 0.00648892 0)
(0.966037 0.00653594 0)
(0.959411 0.00659227 0)
(0.952001 0.00664984 0)
(0.943678 0.00670329 0)
(0.934533 0.00675543 0)
(0.924381 0.00679694 0)
(0.913337 0.00682286 0)
(0.901255 0.00684072 0)
(0.888158 0.00685128 0)
(0.874031 0.00683174 0)
(0.858927 0.00677849 0)
(0.842887 0.00667502 0)
(0.826025 0.00651213 0)
(0.80856 0.00623589 0)
(0.790898 0.00578227 0)
(0.773426 0.0051567 0)
(0.756779 0.00437246 0)
(0.741326 0.00354513 0)
(0.727313 0.00277 0)
(0.714612 0.00214756 0)
(0.702815 0.00170752 0)
(0.691717 0.00141037 0)
(0.681193 0.00121111 0)
(0.67089 0.00105495 0)
(0.661049 0.000939435 0)
(0.651389 0.000869664 0)
(0.641785 0.00082546 0)
(0.632421 0.000804814 0)
(0.623005 0.00078219 0)
(0.613579 0.000746784 0)
(0.604501 0.000726652 0)
(0.595397 0.000705402 0)
(0.586349 0.000682213 0)
(0.577486 0.000666403 0)
(0.568676 0.000628511 0)
(0.559963 0.000594373 0)
(0.551524 0.000578686 0)
(0.543177 0.000543825 0)
(0.535083 0.00051218 0)
(0.527187 0.000487846 0)
(0.519372 0.00045688 0)
(0.511863 0.000434885 0)
(0.504691 0.000404866 0)
(0.49743 0.000378927 0)
(0.490587 0.000356442 0)
(0.484161 0.000317816 0)
(0.477952 0.000298201 0)
(0.471833 0.000292762 0)
(0.466021 0.000262674 0)
(0.460459 0.000238047 0)
(0.45539 0.000222562 0)
(0.450394 0.000199053 0)
(0.445592 0.000186912 0)
(0.441047 0.000178028 0)
(0.437024 0.000150259 0)
(0.433141 0.000124648 0)
(0.42951 0.000123829 0)
(0.426033 0.000122717 0)
(0.422965 9.90692e-05 0)
(0.419995 8.10864e-05 0)
(0.417395 7.98563e-05 0)
(0.414886 7.23172e-05 0)
(0.412707 5.94976e-05 0)
(0.410584 5.4757e-05 0)
(0.408847 4.76568e-05 0)
(0.407075 3.97109e-05 0)
(0.405647 3.75784e-05 0)
(0.404196 3.30109e-05 0)
(0.403103 2.52942e-05 0)
(0.401918 2.2569e-05 0)
(0.401095 2.11411e-05 0)
(0.400142 1.66737e-05 0)
(0.399545 1.32984e-05 0)
(0.398766 1.25939e-05 0)
(0.398361 1.05456e-05 0)
(0.397731 7.92127e-06 0)
(0.397491 6.40648e-06 0)
(0.396985 5.34865e-06 0)
(0.396882 3.9674e-06 0)
(0.396469 3.06171e-06 0)
(0.396481 2.03217e-06 0)
(0.396132 1.94576e-06 0)
(0.396238 9.63708e-07 0)
(0.395929 1.01896e-06 0)
(0.396103 6.24828e-07 0)
(0.395818 6.64033e-07 0)
(0.396028 8.87981e-07 0)
(0.395743 1.22421e-06 0)
(0.395975 2.80718e-06 0)
(0.395586 1.10567e-05 0)
(0.997609 0.003578 0)
(0.996999 0.00474225 0)
(0.996632 0.00543227 0)
(0.996518 0.00558638 0)
(0.99648 0.00553871 0)
(0.996504 0.00551288 0)
(0.996518 0.00557657 0)
(0.996517 0.00570895 0)
(0.99642 0.00586934 0)
(0.996191 0.00603462 0)
(0.995861 0.00619582 0)
(0.995299 0.00636047 0)
(0.9946 0.00653127 0)
(0.993573 0.00670089 0)
(0.992369 0.00687384 0)
(0.990783 0.00704557 0)
(0.988919 0.00719693 0)
(0.986636 0.00734776 0)
(0.983945 0.0074974 0)
(0.980839 0.00761158 0)
(0.977267 0.00768654 0)
(0.973254 0.00769926 0)
(0.968755 0.0076367 0)
(0.96379 0.00743725 0)
(0.958474 0.00704236 0)
(0.952805 0.00644652 0)
(0.947067 0.00566149 0)
(0.941257 0.0047909 0)
(0.935595 0.00393601 0)
(0.930005 0.00322406 0)
(0.924498 0.00274535 0)
(0.918973 0.0024262 0)
(0.913534 0.00224142 0)
(0.907972 0.0021175 0)
(0.902493 0.0020084 0)
(0.896891 0.00196862 0)
(0.89121 0.00195098 0)
(0.885453 0.00193381 0)
(0.879529 0.00194147 0)
(0.873449 0.00191536 0)
(0.867308 0.00187256 0)
(0.861026 0.00185505 0)
(0.854631 0.00182736 0)
(0.848019 0.00179114 0)
(0.841439 0.00174905 0)
(0.834534 0.00169436 0)
(0.827659 0.00165272 0)
(0.820753 0.00159576 0)
(0.813677 0.00152474 0)
(0.806718 0.0014787 0)
(0.799656 0.00142997 0)
(0.792447 0.00136122 0)
(0.785577 0.0013008 0)
(0.778273 0.00125942 0)
(0.771123 0.00119173 0)
(0.764236 0.00109663 0)
(0.757308 0.00104335 0)
(0.750329 0.00101542 0)
(0.743672 0.00095295 0)
(0.73687 0.000881405 0)
(0.730455 0.000817389 0)
(0.724077 0.000765552 0)
(0.717812 0.000735088 0)
(0.711527 0.000683177 0)
(0.70583 0.000600952 0)
(0.700216 0.000543152 0)
(0.69474 0.000521893 0)
(0.689361 0.000487363 0)
(0.684583 0.000426215 0)
(0.679742 0.000378581 0)
(0.675319 0.000352229 0)
(0.67103 0.000318352 0)
(0.667159 0.000278825 0)
(0.66328 0.000249906 0)
(0.660013 0.000221956 0)
(0.656658 0.000195941 0)
(0.653779 0.000176292 0)
(0.650886 0.000153469 0)
(0.648539 0.000129712 0)
(0.646049 0.000114098 0)
(0.644136 0.00010088 0)
(0.64208 8.50112e-05 0)
(0.640558 7.20359e-05 0)
(0.638812 6.31671e-05 0)
(0.637644 5.31181e-05 0)
(0.636205 4.34372e-05 0)
(0.635342 3.61235e-05 0)
(0.634171 3.00473e-05 0)
(0.633581 2.38625e-05 0)
(0.632637 1.89952e-05 0)
(0.632276 1.42409e-05 0)
(0.631513 1.16049e-05 0)
(0.631344 7.69841e-06 0)
(0.630731 6.44523e-06 0)
(0.63071 3.75578e-06 0)
(0.630228 3.55941e-06 0)
(0.630309 2.18706e-06 0)
(0.629918 3.21752e-06 0)
(0.630072 3.92367e-06 0)
(0.629675 1.86245e-05 0)
(0.998064 0.00339703 0)
(0.997443 0.00439498 0)
(0.997005 0.00518316 0)
(0.996859 0.00559861 0)
(0.99688 0.00572472 0)
(0.997048 0.0057469 0)
(0.997299 0.00578807 0)
(0.997596 0.00588761 0)
(0.997908 0.00603251 0)
(0.998183 0.00619781 0)
(0.998508 0.006368 0)
(0.998752 0.00654203 0)
(0.99905 0.00671851 0)
(0.999231 0.00689967 0)
(0.999466 0.00708078 0)
(0.999588 0.00726997 0)
(0.999719 0.00743432 0)
(0.999746 0.00760854 0)
(0.999713 0.00778146 0)
(0.999627 0.00791514 0)
(0.999467 0.00800376 0)
(0.999249 0.00802602 0)
(0.998927 0.00796524 0)
(0.998468 0.00776285 0)
(0.997904 0.0073698 0)
(0.997111 0.00679734 0)
(0.99622 0.00604227 0)
(0.995044 0.00521197 0)
(0.993771 0.00438833 0)
(0.992208 0.00368925 0)
(0.990554 0.00320655 0)
(0.988707 0.00288169 0)
(0.986875 0.00270152 0)
(0.984943 0.00258571 0)
(0.983051 0.00248274 0)
(0.981066 0.00245068 0)
(0.979081 0.00242399 0)
(0.977027 0.00240952 0)
(0.974938 0.00241759 0)
(0.972685 0.00238163 0)
(0.970418 0.00234518 0)
(0.967974 0.00232516 0)
(0.965509 0.00230675 0)
(0.962847 0.00228544 0)
(0.960197 0.00224505 0)
(0.957237 0.00220525 0)
(0.954234 0.00216913 0)
(0.951137 0.0021173 0)
(0.947839 0.00205389 0)
(0.944466 0.00200149 0)
(0.941082 0.00196576 0)
(0.937423 0.00189954 0)
(0.93395 0.00183255 0)
(0.930087 0.00181334 0)
(0.926278 0.00174531 0)
(0.92243 0.00163095 0)
(0.918467 0.00158498 0)
(0.914307 0.00155762 0)
(0.91035 0.00148142 0)
(0.906057 0.00140594 0)
(0.902005 0.00133143 0)
(0.897774 0.0012639 0)
(0.893613 0.00123443 0)
(0.889293 0.00117758 0)
(0.885267 0.00106435 0)
(0.881057 0.000985437 0)
(0.876953 0.00096453 0)
(0.872743 0.000912637 0)
(0.868917 0.000820384 0)
(0.864858 0.00075527 0)
(0.861091 0.0007133 0)
(0.857295 0.000656693 0)
(0.85381 0.000597885 0)
(0.850126 0.000548111 0)
(0.846942 0.000495298 0)
(0.843579 0.000450633 0)
(0.840631 0.00041514 0)
(0.837554 0.000372188 0)
(0.834937 0.000328517 0)
(0.832097 0.000295702 0)
(0.82978 0.000264233 0)
(0.827293 0.000231173 0)
(0.825305 0.00020429 0)
(0.823087 0.000183047 0)
(0.821401 0.000159313 0)
(0.819455 0.000136904 0)
(0.818036 0.000117395 0)
(0.816376 0.000100972 0)
(0.815245 8.44769e-05 0)
(0.813867 7.16912e-05 0)
(0.812999 5.85084e-05 0)
(0.811859 4.98369e-05 0)
(0.811223 3.83658e-05 0)
(0.810285 3.26455e-05 0)
(0.809858 2.34987e-05 0)
(0.809107 1.99622e-05 0)
(0.808878 1.39437e-05 0)
(0.808268 1.28493e-05 0)
(0.808225 1.04577e-05 0)
(0.807663 2.64923e-05 0)
(0.998414 0.00343184 0)
(0.99778 0.00432326 0)
(0.997295 0.00508092 0)
(0.997058 0.00558645 0)
(0.99704 0.00580508 0)
(0.997185 0.00585687 0)
(0.997467 0.00586552 0)
(0.99779 0.00590858 0)
(0.998145 0.00601325 0)
(0.99846 0.00615881 0)
(0.998834 0.0063264 0)
(0.999147 0.00650327 0)
(0.999526 0.00667948 0)
(0.999826 0.00686114 0)
(1.00021 0.00703947 0)