/*--------------------------------*- C++ -*----------------------------------*\
| =========                 |                                                 |
| \\      /  F ield         | OpenFOAM: The Open Source CFD Toolbox           |
|  \\    /   O peration     | Version:  v1906                                 |
|   \\  /    A nd           | Web:      www.OpenFOAM.com                      |
|    \\/     M anipulation  |                                                 |
\*---------------------------------------------------------------------------*/
FoamFile
{
    version     2.0;
    format      ascii;
    class       surfaceScalarField;
    location    "0.6";
    object      phi;
}
// * * * * * * * * * * * * * * * * * * * * * * * * * * * * * * * * * * * * * //

dimensions      [0 3 -1 0 0 0 0];
oriented        oriented;


internalField   nonuniform List<scalar> 
3120
(
0.000206239
4.37606e-05
0.000158186
4.80538e-05
0.000122477
3.57084e-05
9.75337e-05
2.49436e-05
8.05647e-05
1.6969e-05
6.89736e-05
1.15911e-05
6.08093e-05
8.16431e-06
5.48071e-05
6.0022e-06
5.01989e-05
4.60822e-06
4.6525e-05
3.67384e-06
4.35072e-05
3.0178e-06
4.09712e-05
2.53605e-06
3.88025e-05
2.16864e-06
3.69226e-05
1.87991e-06
3.5275e-05
1.6476e-06
3.38179e-05
1.45714e-06
3.25193e-05
1.29856e-06
3.13545e-05
1.16479e-06
3.03039e-05
1.05067e-06
2.93515e-05
9.52324e-07
2.84847e-05
8.66801e-07
2.76929e-05
7.9181e-07
2.69674e-05
7.25544e-07
2.63008e-05
6.66565e-07
2.56871e-05
6.13712e-07
2.51211e-05
5.66042e-07
2.45983e-05
5.22784e-07
2.4115e-05
4.83301e-07
2.36679e-05
4.47076e-07
2.32542e-05
4.1369e-07
2.28714e-05
3.82825e-07
2.25171e-05
3.54275e-07
2.21891e-05
3.27985e-07
2.1885e-05
3.04155e-07
2.16015e-05
2.83496e-07
2.13337e-05
2.67808e-07
2.10729e-05
2.60734e-07
2.08034e-05
2.69595e-07
2.04872e-05
3.16193e-07
4.17509e-07
0.000263187
3.05734e-05
0.000258016
5.32249e-05
0.000240816
5.29084e-05
0.000219922
4.58377e-05
0.000199287
3.76042e-05
0.000180836
3.0042e-05
0.00016513
2.38702e-05
0.000152005
1.91274e-05
0.000141055
1.55579e-05
0.000131859
1.28699e-05
0.000124055
1.08219e-05
0.000117356
9.235e-06
0.000111542
7.98219e-06
0.000106447
6.97516e-06
0.000101942
6.1523e-06
9.79296e-05
5.47003e-06
9.43311e-05
4.89699e-06
9.10858e-05
4.41016e-06
8.81441e-05
3.99234e-06
8.5466e-05
3.63043e-06
8.30185e-05
3.31431e-06
8.07742e-05
3.03604e-06
7.87105e-05
2.78933e-06
7.68079e-05
2.5691e-06
7.50504e-05
2.37126e-06
7.3424e-05
2.19244e-06
7.19169e-05
2.02986e-06
7.05189e-05
1.88125e-06
6.92213e-05
1.74472e-06
6.80163e-05
1.61873e-06
6.6897e-05
1.5021e-06
6.58573e-05
1.394e-06
6.48912e-05
1.29407e-06
6.39927e-05
1.20266e-06
6.31549e-05
1.12129e-06
6.2369e-05
1.05371e-06
6.16222e-05
1.00749e-06
6.08971e-05
9.94669e-07
6.01766e-05
1.03673e-06
1.17159e-06
0.000262609
1.7964e-05
0.000274173
4.16612e-05
0.0002766
5.04813e-05
0.000271592
5.08455e-05
0.000261872
4.73248e-05
0.000249734
4.21799e-05
0.00023686
3.67442e-05
0.000224275
3.17123e-05
0.000212499
2.73335e-05
0.000201737
2.36326e-05
0.000192013
2.05452e-05
0.000183269
1.7979e-05
0.00017541
1.58418e-05
0.000168333
1.40524e-05
0.000161941
1.25436e-05
0.00015615
1.12616e-05
0.000150883
1.01637e-05
0.000146077
9.21613e-06
0.000141677
8.39222e-06
0.000137637
7.67074e-06
0.000133917
7.0347e-06
0.000130482
6.47036e-06
0.000127305
5.96657e-06
0.00012436
5.51419e-06
0.000121625
5.10568e-06
0.000119083
4.73476e-06
0.000116717
4.3962e-06
0.000114512
4.08562e-06
0.000112458
3.79935e-06
0.000110542
3.53437e-06
0.000108756
3.28827e-06
0.000107091
3.05926e-06
0.000105538
2.84633e-06
0.000104092
2.64947e-06
0.000102743
2.47025e-06
0.000101484
2.3128e-06
0.000100306
2.18543e-06
9.91995e-05
2.10083e-06
9.8165e-05
2.07127e-06
2.14747e-06
0.000257134
1.08304e-05
0.000269219
2.95758e-05
0.000278763
4.09377e-05
0.000283574
4.60344e-05
0.00028384
4.70581e-05
0.00028046
4.55601e-05
0.000274531
4.2673e-05
0.000267051
3.91926e-05
0.000258783
3.56016e-05
0.000250257
3.21585e-05
0.000241816
2.89867e-05
0.000233663
2.61312e-05
0.000225911
2.35937e-05
0.00021861
2.13538e-05
0.000211772
1.93815e-05
0.000205389
1.76449e-05
0.000199439
1.61132e-05
0.000193897
1.47582e-05
0.000188734
1.35555e-05
0.000183921
1.24836e-05
0.000179431
1.15243e-05
0.00017524
1.0662e-05
0.000171323
9.8836e-06
0.000167659
9.17772e-06
0.00016423
8.53476e-06
0.000161018
7.9465e-06
0.000158009
7.40591e-06
0.000155187
6.90696e-06
0.000152542
6.4445e-06
0.000150062
6.01419e-06
0.000147738
5.61243e-06
0.000145561
5.2364e-06
0.000143523
4.88419e-06
0.000141618
4.55501e-06
0.000139838
4.24962e-06
0.00013818
3.97104e-06
0.00013664
3.72561e-06
0.000135216
3.52429e-06
0.00013392
3.36803e-06
3.31359e-06
0.00025373
7.10019e-06
0.000262407
2.08988e-05
0.000271916
3.14293e-05
0.000279808
3.81421e-05
0.000285125
4.17415e-05
0.000287679
4.30055e-05
0.000287729
4.26232e-05
0.000285742
4.11795e-05
0.000282224
3.91199e-05
0.000277629
3.67536e-05
0.000272331
3.42839e-05
0.000266623
3.18392e-05
0.000260722
2.94954e-05
0.000254782
2.72933e-05
0.000248913
2.52508e-05
0.000243186
2.33717e-05
0.000237648
2.16511e-05
0.000232327
2.00799e-05
0.000227236
1.86463e-05
0.000222381
1.73381e-05
0.000217763
1.61429e-05
0.000213375
1.50491e-05
0.000209213
1.40459e-05
0.000205267
1.31235e-05
0.000201529
1.22727e-05
0.00019799
1.14857e-05
0.000194641
1.07553e-05
0.000191473
1.00751e-05
0.000188478
9.43951e-06
0.000185648
8.84351e-06
0.000182978
8.2829e-06
0.00018046
7.75417e-06
0.00017809
7.2546e-06
0.000175862
6.78247e-06
0.000173774
6.33729e-06
0.000171825
5.92029e-06
0.000170016
5.53439e-06
0.000168353
5.18781e-06
0.000166849
4.87205e-06
4.6311e-06
0.00025204
5.05971e-06
0.000257655
1.52843e-05
0.000265018
2.40666e-05
0.000272497
3.06626e-05
0.000279074
3.51648e-05
0.000284189
3.78906e-05
0.000287628
3.91845e-05
0.000289419
3.93879e-05
0.000289732
3.88071e-05
0.000288794
3.76914e-05
0.000286846
3.62324e-05
0.000284112
3.45727e-05
0.000280792
3.28151e-05
0.000277054
3.10316e-05
0.000273034
2.92709e-05
0.000268841
2.75644e-05
0.000264561
2.59314e-05
0.000260259
2.43823e-05
0.000255983
2.29214e-05
0.000251772
2.15492e-05
0.000247652
2.02633e-05
0.000243641
1.90597e-05
0.000239754
1.79335e-05
0.000235998
1.68793e-05
0.000232379
1.58915e-05
0.0002289
1.49644e-05
0.000225563
1.40928e-05
0.000222367
1.32713e-05
0.000219311
1.24953e-05
0.000216394
1.17603e-05
0.000213615
1.10622e-05
0.000210972
1.03974e-05
0.000208464
9.76282e-06
0.00020609
9.1561e-06
0.000203852
8.57547e-06
0.000201752
8.02033e-06
0.000199796
7.49011e-06
0.000197994
6.98951e-06
0.00019636
6.50588e-06
6.04511e-06
0.000251216
3.84348e-06
0.000254833
1.16679e-05
0.0002601
1.87987e-05
0.000266104
2.46594e-05
0.000272111
2.91574e-05
0.000277603
3.23991e-05
0.000282245
3.45417e-05
0.00028587
3.5763e-05
0.000288433
3.62441e-05
0.000289973
3.61516e-05
0.000290577
3.56282e-05
0.000290359
3.47914e-05
0.000289438
3.37359e-05
0.000287934
3.25358e-05
0.000285956
3.12482e-05
0.000283604
2.99162e-05
0.000280964
2.85716e-05
0.000278109
2.72372e-05
0.000275102
2.59292e-05
0.000271993
2.46583e-05
0.000268825
2.34313e-05
0.000265632
2.22522e-05
0.000262443
2.11226e-05
0.00025928
2.00424e-05
0.000256161
1.90107e-05
0.0002531
1.80255e-05
0.000250108
1.70844e-05
0.000247195
1.61845e-05
0.000244367
1.5323e-05
0.000241631
1.44966e-05
0.000238991
1.37024e-05
0.000236451
1.29373e-05
0.000234015
1.21984e-05
0.000231688
1.1483e-05
0.000229475
1.07886e-05
0.000227383
1.0113e-05
0.00022542
9.45285e-06
0.000223601
8.80865e-06
0.000221936
8.17085e-06
7.48487e-06
0.000250791
3.05207e-06
0.00025321
9.24903e-06
0.000256942
1.50673e-05
0.000261492
2.01089e-05
0.000266403
2.42468e-05
0.0002713
2.75015e-05
0.000275899
2.99432e-05
0.000279998
3.16635e-05
0.000283477
3.27653e-05
0.000286277
3.33515e-05
0.000288388
3.35175e-05
0.000289832
3.33475e-05
0.000290653
3.29145e-05
0.000290909
3.22798e-05
0.000290663
3.14944e-05
0.000289979
3.06e-05
0.000288921
2.96302e-05
0.000287546
2.86116e-05
0.00028591
2.75653e-05
0.000284061
2.65074e-05
0.000282042
2.54502e-05
0.000279892
2.44028e-05
0.000277642
2.33719e-05
0.000275323
2.23619e-05
0.000272958
2.13757e-05
0.000270569
2.04149e-05
0.000268173
1.94801e-05
0.000265786
1.85712e-05
0.000263422
1.76872e-05
0.000261092
1.68268e-05
0.000258806
1.59884e-05
0.000256573
1.51699e-05
0.000254402
1.4369e-05
0.000252302
1.35831e-05
0.000250281
1.28093e-05
0.00024835
1.20444e-05
0.000246519
1.12834e-05
0.000244806
1.05218e-05
0.000243217
9.76016e-06
8.87151e-06
0.000250553
2.49871e-06
0.000252251
7.55139e-06
0.000254946
1.23721e-05
0.000258366
1.6689e-05
0.000262229
2.0384e-05
0.000266287
2.34429e-05
0.000270335
2.58956e-05
0.000274207
2.77916e-05
0.000277781
2.91914e-05
0.000280973
3.01596e-05
0.000283731
3.07589e-05
0.000286032
3.1047e-05
0.00028787
3.10763e-05
0.000289257
3.08927e-05
0.000290215
3.05362e-05
0.000290774
3.00412e-05
0.000290967
2.94371e-05
0.00029083
2.87483e-05
0.0002904
2.79955e-05
0.000289712
2.71957e-05
0.0002888
2.63625e-05
0.000287695
2.55074e-05
0.000286428
2.46391e-05
0.000285025
2.37648e-05
0.000283511
2.28897e-05
0.000281908
2.20178e-05
0.000280236
2.1152e-05
0.000278513
2.0294e-05
0.000276756
1.94448e-05
0.000274978
1.86047e-05
0.000273193
1.77733e-05
0.000271413
1.69495e-05
0.000269651
1.61317e-05
0.000267916
1.53179e-05
0.00026622
1.45048e-05
0.000264576
1.36888e-05
0.000262995
1.28645e-05
0.000261495
1.20222e-05
0.000260078
1.11764e-05
1.01301e-05
0.000250407
2.09126e-06
0.000251652
6.30671e-06
0.000253656
1.03678e-05
0.000256261
1.40848e-05
0.000259286
1.73586e-05
0.000262568
2.01606e-05
0.000265964
2.24996e-05
0.000269353
2.44029e-05
0.000272636
2.59083e-05
0.000275737
2.70584e-05
0.0002786
2.78962e-05
0.000281185
2.84626e-05
0.000283466
2.8795e-05
0.000285431
2.89272e-05
0.000287078
2.88894e-05
0.000288411
2.87083e-05
0.000289441
2.8407e-05
0.000290183
2.8006e-05
0.000290656
2.75227e-05
0.00029088
2.69722e-05
0.000290875
2.63674e-05
0.000290663
2.57191e-05
0.000290266
2.50364e-05
0.000289704
2.4327e-05
0.000288997
2.3597e-05
0.000288163
2.28514e-05
0.000287221
2.20941e-05
0.000286187
2.1328e-05
0.000285077
2.05552e-05
0.000283904
1.97769e-05
0.000282684
1.89937e-05
0.000281428
1.82052e-05
0.000280149
1.74106e-05
0.000278859
1.66079e-05
0.00027757
1.57944e-05
0.000276293
1.49658e-05
0.00027504
1.41173e-05
0.000273827
1.32348e-05
0.000272657
1.23471e-05
1.12011e-05
0.000250311
1.78014e-06
0.000251257
5.36094e-06
0.000252791
8.83318e-06
0.000254815
1.20611e-05
0.00025721
1.49637e-05
0.000259863
1.75082e-05
0.000262671
1.9691e-05
0.000265548
2.15259e-05
0.00026842
2.30366e-05
0.000271226
2.42525e-05
0.000273917
2.52046e-05
0.000276457
2.59232e-05
0.000278815
2.64364e-05
0.000280973
2.677e-05
0.000282915
2.69471e-05
0.000284635
2.69883e-05
0.00028613
2.69119e-05
0.000287402
2.6734e-05
0.000288456
2.64688e-05
0.000289299
2.61286e-05
0.000289943
2.57242e-05
0.000290397
2.52651e-05
0.000290674
2.47593e-05
0.000290787
2.42139e-05
0.000290749
2.36346e-05
0.000290574
2.30265e-05
0.000290275
2.23934e-05
0.000289864
2.17387e-05
0.000289354
2.10646e-05
0.000288758
2.03729e-05
0.000288088
1.96645e-05
0.000287353
1.89396e-05
0.000286566
1.81974e-05
0.000285738
1.74364e-05
0.000284878
1.66541e-05
0.000283998
1.58461e-05
0.000283107
1.50086e-05
0.000282217
1.41242e-05
0.000281331
1.32334e-05
1.20488e-05
0.000250244
1.53605e-06
0.000250983
4.62159e-06
0.000252189
7.6279e-06
0.000253795
1.04552e-05
0.00025572
1.30385e-05
0.000257883
1.53451e-05
0.000260209
1.73646e-05
0.000262634
1.91015e-05
0.0002651
2.05703e-05
0.000267562
2.17909e-05
0.00026998
2.27863e-05
0.000272324
2.35795e-05
0.000274567
2.41926e-05
0.000276691
2.46462e-05
0.000278679
2.49588e-05
0.000280521
2.51469e-05
0.000282207
2.52254e-05
0.000283734
2.52073e-05
0.000285099
2.51039e-05
0.000286302
2.49253e-05
0.000287346
2.46804e-05
0.000288234
2.4377e-05
0.000288972
2.40217e-05
0.000289565
2.36205e-05
0.000290021
2.31784e-05
0.000290348
2.26996e-05
0.000290554
2.21877e-05
0.000290647
2.16457e-05
0.000290636
2.10757e-05
0.000290529
2.04795e-05
0.000290336
1.98578e-05
0.000290065
1.9211e-05
0.000289724
1.85384e-05
0.000289321
1.78387e-05
0.000288866
1.71096e-05
0.000288365
1.63468e-05
0.000287826
1.55475e-05
0.000287257
1.46932e-05
0.00028666
1.38311e-05
1.26628e-05
0.000250196
1.34035e-06
0.000250787
4.03027e-06
0.000251754
6.66075e-06
0.000253053
9.15683e-06
0.000254625
1.14664e-05
0.000256411
1.35591e-05
0.000258354
1.54215e-05
0.000260403
1.70521e-05
0.000262515
1.84583e-05
0.000264653
1.96533e-05
0.000266785
2.06537e-05
0.000268888
2.14772e-05
0.000270939
2.21415e-05
0.000272922
2.26631e-05
0.000274823
2.30577e-05
0.000276631
2.3339e-05
0.000278337
2.35195e-05
0.000279934
2.36101e-05
0.000281417
2.36204e-05
0.000282784
2.35588e-05
0.000284032
2.34327e-05
0.00028516
2.32485e-05
0.00028617
2.30118e-05
0.000287063
2.27274e-05
0.000287842
2.23995e-05
0.00028851
2.20316e-05
0.000289071
2.16266e-05
0.00028953
2.11869e-05
0.000289891
2.07145e-05
0.00029016
2.02106e-05
0.000290342
1.96758e-05
0.000290442
1.91104e-05
0.000290467
1.85138e-05
0.000290421
1.78846e-05
0.00029031
1.72207e-05
0.000290139
1.65184e-05
0.00028991
1.57756e-05
0.000289629
1.49744e-05
0.000289296
1.4164e-05
1.30553e-05
0.00025016
1.18061e-06
0.000250642
3.54838e-06
0.000251432
5.87059e-06
0.000252499
8.08974e-06
0.000253801
1.01639e-05
0.000255294
1.20663e-05
0.000256933
1.37823e-05
0.000258679
1.53067e-05
0.000260495
1.66422e-05
0.000262351
1.77969e-05
0.000264223
1.87822e-05
0.000266089
1.96114e-05
0.000267932
2.02985e-05
0.000269738
2.08571e-05
0.000271495
2.13003e-05
0.000273194
2.16397e-05
0.000274828
2.18863e-05
0.000276388
2.20494e-05
0.000277871
2.21375e-05
0.000279272
2.2158e-05
0.000280588
2.21171e-05
0.000281816
2.20205e-05
0.000282955
2.18728e-05
0.000284004
2.16782e-05
0.000284963
2.14401e-05
0.000285834
2.11614e-05
0.000286616
2.08446e-05
0.000287311
2.04916e-05
0.000287922
2.01037e-05
0.00028845
1.96821e-05
0.000288899
1.92271e-05
0.000289271
1.87387e-05
0.000289568
1.82164e-05
0.000289794
1.76588e-05
0.00028995
1.70643e-05
0.000290039
1.64294e-05
0.000290062
1.5753e-05
0.000290017
1.5019e-05
0.000289907
1.42746e-05
1.3255e-05
0.000250132
1.0482e-06
0.000250531
3.14943e-06
0.000251187
5.21507e-06
0.000252076
7.20027e-06
0.000253169
9.07116e-06
0.000254431
1.08044e-05
0.000255828
1.23856e-05
0.000257327
1.38078e-05
0.000258899
1.50703e-05
0.000260518
1.61774e-05
0.000262164
1.71366e-05
0.000263817
1.79577e-05
0.000265465
1.86513e-05
0.000267093
1.92284e-05
0.000268694
1.96999e-05
0.000270258
2.00758e-05
0.000271778
2.03654e-05
0.000273251
2.05773e-05
0.000274669
2.07188e-05
0.000276031
2.07966e-05
0.000277331
2.08163e-05
0.000278569
2.0783e-05
0.000279741
2.07009e-05
0.000280845
2.05735e-05
0.000281882
2.0404e-05
0.000282848
2.01947e-05
0.000283745
1.99479e-05
0.000284572
1.9665e-05
0.000285328
1.93471e-05
0.000286015
1.89952e-05
0.000286633
1.86094e-05
0.000287182
1.81897e-05
0.000287663
1.77355e-05
0.000288076
1.72457e-05
0.000288421
1.67188e-05
0.000288698
1.61523e-05
0.000288906
1.55454e-05
0.00028904
1.48849e-05
0.000289101
1.42135e-05
1.32989e-05
0.000250111
9.36997e-07
0.000250446
2.81462e-06
0.000250997
4.66402e-06
0.000251748
6.44964e-06
0.000252675
8.14391e-06
0.000253753
9.72682e-06
0.000254953
1.11848e-05
0.000256251
1.25101e-05
0.000257621
1.37001e-05
0.000259042
1.47563e-05
0.000260496
1.56833e-05
0.000261966
1.64878e-05
0.000263439
1.71779e-05
0.000264905
1.77622e-05
0.000266355
1.82496e-05
0.000267783
1.86485e-05
0.000269181
1.8967e-05
0.000270546
1.92124e-05
0.000271873
1.93916e-05
0.000273159
1.95103e-05
0.000274402
1.9574e-05
0.000275598
1.95871e-05
0.000276745
1.95535e-05
0.000277842
1.94766e-05
0.000278887
1.93591e-05
0.000279878
1.92034e-05
0.000280815
1.90113e-05
0.000281695
1.87842e-05
0.000282519
1.85231e-05
0.000283286
1.82287e-05
0.000283994
1.79013e-05
0.000284643
1.75407e-05
0.000285232
1.71466e-05
0.000285759
1.67182e-05
0.000286224
1.62543e-05
0.000286623
1.5753e-05
0.000286954
1.52143e-05
0.000287211
1.46279e-05
0.000287394
1.40308e-05
1.32261e-05
0.000250094
8.42503e-07
0.000250379
2.5303e-06
0.000250847
4.19541e-06
0.000251488
5.80924e-06
0.000252283
7.34921e-06
0.000253211
8.7982e-06
0.000254252
1.01439e-05
0.000255384
1.13783e-05
0.000256586
1.24977e-05
0.000257841
1.35018e-05
0.000259131
1.4393e-05
0.000260443
1.51757e-05
0.000261765
1.58558e-05
0.000263088
1.644e-05
0.000264402
1.69351e-05
0.000265702
1.73484e-05
0.000266983
1.76865e-05
0.000268239
1.79559e-05
0.000269468
1.81626e-05
0.000270667
1.83118e-05
0.000271832
1.84085e-05
0.000272963
1.84567e-05
0.000274056
1.84602e-05
0.00027511
1.84222e-05
0.000276124
1.83451e-05
0.000277096
1.82313e-05
0.000278025
1.80825e-05
0.000278909
1.79001e-05
0.000279747
1.7685e-05
0.000280538
1.7438e-05
0.00028128
1.71594e-05
0.000281971
1.68493e-05
0.00028261
1.65075e-05
0.000283195
1.61334e-05
0.000283723
1.57265e-05
0.00028419
1.52856e-05
0.000284593
1.4811e-05
0.000284926
1.42955e-05
0.000285186
1.37702e-05
1.30724e-05
0.000250081
7.61373e-07
0.000250325
2.28631e-06
0.000250728
3.79277e-06
0.000251279
5.25754e-06
0.000251967
6.66193e-06
0.000252774
7.99135e-06
0.000253683
9.23473e-06
0.000254677
1.03844e-05
0.000255738
1.14361e-05
0.000256852
1.23882e-05
0.000258003
1.32416e-05
0.00025918
1.39991e-05
0.000260371
1.46647e-05
0.000261567
1.52434e-05
0.000262762
1.57408e-05
0.000263948
1.61623e-05
0.00026512
1.65139e-05
0.000266276
1.68008e-05
0.00026741
1.70283e-05
0.00026852
1.72012e-05
0.000269605
1.73238e-05
0.000270662
1.73999e-05
0.000271689
1.74331e-05
0.000272685
1.74261e-05
0.000273649
1.73817e-05
0.000274578
1.73018e-05
0.000275472
1.71883e-05
0.00027633
1.70426e-05
0.000277149
1.68657e-05
0.000277929
1.66584e-05
0.000278667
1.64213e-05
0.000279362
1.61545e-05
0.000280011
1.58581e-05
0.000280612
1.55321e-05
0.000281162
1.51763e-05
0.000281658
1.47902e-05
0.000282094
1.43746e-05
0.000282465
1.39248e-05
0.000282769
1.34665e-05
1.28678e-05
0.00025007
6.91065e-07
0.000250282
2.07493e-06
0.000250631
3.44362e-06
0.00025111
4.77804e-06
0.00025171
6.06266e-06
0.000252416
7.28499e-06
0.000253215
8.43523e-06
0.000254094
9.5062e-06
0.000255036
1.04933e-05
0.00025603
1.13944e-05
0.000257063
1.22092e-05
0.000258122
1.29393e-05
0.0002592
1.35873e-05
0.000260286
1.41568e-05
0.000261375
1.4652e-05
0.00026246
1.50775e-05
0.000263536
1.54379e-05
0.000264599
1.57377e-05
0.000265646
1.59814e-05
0.000266674
1.61732e-05
0.000267681
1.6317e-05
0.000268665
1.64162e-05
0.000269624
1.6474e-05
0.000270557
1.64931e-05
0.000271462
1.64761e-05
0.000272339
1.6425e-05
0.000273186
1.63415e-05
0.000274002
1.62271e-05
0.000274784
1.60829e-05
0.000275533
1.59099e-05
0.000276246
1.57087e-05
0.00027692
1.54798e-05
0.000277555
1.52236e-05
0.000278146
1.49404e-05
0.000278692
1.46305e-05
0.000279189
1.42939e-05
0.000279631
1.3932e-05
0.000280014
1.35419e-05
0.000280336
1.31449e-05
1.26351e-05
0.000250061
6.29614e-07
0.000250246
1.89024e-06
0.000250551
3.13828e-06
0.000250972
4.35791e-06
0.000251498
5.53613e-06
0.000252121
6.66223e-06
0.000252829
7.72759e-06
0.000253609
8.72559e-06
0.000254451
9.65168e-06
0.000255342
1.05033e-05
0.000256272
1.12795e-05
0.00025723
1.19808e-05
0.000258208
1.2609e-05
0.000259199
1.31664e-05
0.000260195
1.36563e-05
0.00026119
1.40822e-05
0.00026218
1.44478e-05
0.000263161
1.4757e-05
0.000264129
1.50134e-05
0.000265081
1.52206e-05
0.000266016
1.5382e-05
0.000266931
1.55009e-05
0.000267825
1.558e-05
0.000268697
1.56219e-05
0.000269544
1.56289e-05
0.000270366
1.5603e-05
0.000271161
1.5546e-05
0.000271929
1.54593e-05
0.000272668
1.53442e-05
0.000273376
1.52017e-05
0.000274052
1.50326e-05
0.000274694
1.48378e-05
0.0002753
1.46178e-05
0.000275867
1.43733e-05
0.000276393
1.41048e-05
0.000276873
1.38132e-05
0.000277305
1.34999e-05
0.000277684
1.31638e-05
0.000278006
1.28221e-05
1.23906e-05
0.000250054
5.75482e-07
0.000250217
1.72758e-06
0.000250486
2.86917e-06
0.000250857
3.98704e-06
0.000251323
5.07022e-06
0.000251875
6.10954e-06
0.000252506
7.09743e-06
0.000253203
8.02785e-06
0.000253958
8.89646e-06
0.000254761
9.70047e-06
0.000255602
1.04385e-05
0.000256473
1.11105e-05
0.000257364
1.17174e-05
0.00025827
1.22607e-05
0.000259183
1.27428e-05
0.000260099
1.31664e-05
0.000261013
1.35344e-05
0.00026192
1.38499e-05
0.000262817
1.41161e-05
0.000263702
1.4336e-05
0.000264571
1.45125e-05
0.000265424
1.46484e-05
0.000266257
1.47462e-05
0.000267071
1.48084e-05
0.000267863
1.48371e-05
0.000268632
1.48341e-05
0.000269376
1.48011e-05
0.000270096
1.47397e-05
0.000270789
1.46512e-05
0.000271454
1.45366e-05
0.00027209
1.43971e-05
0.000272694
1.42335e-05
0.000273265
1.40467e-05
0.0002738
1.38377e-05
0.000274298
1.36073e-05
0.000274755
1.33567e-05
0.000275167
1.30876e-05
0.000275531
1.28e-05
0.000275845
1.25081e-05
1.21448e-05
0.000250048
5.27444e-07
0.000250192
1.58326e-06
0.000250431
2.63025e-06
0.000250761
3.65731e-06
0.000251176
4.65516e-06
0.00025167
5.61593e-06
0.000252234
6.53295e-06
0.000252861
7.40082e-06
0.000253542
8.21542e-06
0.000254269
8.97394e-06
0.000255033
9.67479e-06
0.000255826
1.03174e-05
0.000256641
1.0902e-05
0.000257472
1.14297e-05
0.000258313
1.19021e-05
0.000259158
1.23212e-05
0.000260003
1.26893e-05
0.000260844
1.30088e-05
0.000261678
1.32824e-05
0.000262501
1.35126e-05
0.000263312
1.3702e-05
0.000264107
1.38528e-05
0.000264886
1.39674e-05
0.000265647
1.4048e-05
0.000266387
1.40964e-05
0.000267107
1.41145e-05
0.000267804
1.41039e-05
0.000268478
1.4066e-05
0.000269127
1.40023e-05
0.000269749
1.39139e-05
0.000270345
1.3802e-05
0.000270911
1.36676e-05
0.000271446
1.35117e-05
0.000271948
1.33356e-05
0.000272414
1.31405e-05
0.000272844
1.29276e-05
0.000273232
1.26989e-05
0.000273577
1.24551e-05
0.000273877
1.22079e-05
1.19042e-05
0.000250043
4.84512e-07
0.000250172
1.45431e-06
0.000250385
2.41665e-06
0.000250681
3.36217e-06
0.000251053
4.283e-06
0.000251496
5.17235e-06
0.000252005
6.02441e-06
0.000252571
6.83431e-06
0.000253189
7.59825e-06
0.000253849
8.31349e-06
0.000254546
8.97828e-06
0.000255271
9.59173e-06
0.000256019
1.01537e-05
0.000256784
1.06649e-05
0.00025756
1.11261e-05
0.000258342
1.1539e-05
0.000259126
1.19053e-05
0.000259908
1.22269e-05
0.000260685
1.2506e-05
0.000261453
1.27445e-05
0.00026221
1.29447e-05
0.000262954
1.31087e-05
0.000263683
1.32384e-05
0.000264395
1.33357e-05
0.00026509
1.34023e-05
0.000265764
1.34401e-05
0.000266417
1.34504e-05
0.000267049
1.34347e-05
0.000267657
1.33945e-05
0.00026824
1.33308e-05
0.000268797
1.32449e-05
0.000269326
1.31381e-05
0.000269827
1.30114e-05
0.000270296
1.28662e-05
0.000270733
1.27039e-05
0.000271134
1.25259e-05
0.000271499
1.23343e-05
0.000271824
1.21303e-05
0.000272108
1.19233e-05
1.16719e-05
0.000250039
4.45879e-07
0.000250155
1.33828e-06
0.000250347
2.22437e-06
0.000250613
3.09624e-06
0.000250949
3.94717e-06
0.00025135
4.77133e-06
0.00025181
5.56364e-06
0.000252325
6.31976e-06
0.000252887
7.03621e-06
0.00025349
7.71038e-06
0.000254128
8.34044e-06
0.000254794
8.92534e-06
0.000255483
9.46468e-06
0.00025619
9.95861e-06
0.000256908
1.04078e-05
0.000257634
1.08132e-05
0.000258363
1.11762e-05
0.000259092
1.14983e-05
0.000259817
1.17811e-05
0.000260535
1.20263e-05
0.000261244
1.22358e-05
0.000261941
1.24113e-05
0.000262625
1.25545e-05
0.000263294
1.26671e-05
0.000263945
1.27506e-05
0.000264579
1.28067e-05
0.000265192
1.28367e-05
0.000265785
1.28421e-05
0.000266355
1.2824e-05
0.000266902
1.27839e-05
0.000267424
1.27228e-05
0.00026792
1.26421e-05
0.000268389
1.25431e-05
0.000268828
1.2427e-05
0.000269236
1.22954e-05
0.000269612
1.215e-05
0.000269954
1.19927e-05
0.000270259
1.18249e-05
0.000270528
1.16545e-05
1.14491e-05
0.000250035
4.10877e-07
0.00025014
1.23317e-06
0.000250314
2.05012e-06
0.000250556
2.85504e-06
0.000250861
3.64219e-06
0.000251225
4.40657e-06
0.000251645
5.14375e-06
0.000252115
5.84988e-06
0.000252629
6.5218e-06
0.000253183
7.15705e-06
0.000253769
7.75382e-06
0.000254384
8.31094e-06
0.000255021
8.82781e-06
0.000255675
9.30431e-06
0.000256342
9.74075e-06
0.000257017
1.01378e-05
0.000257697
1.04963e-05
0.000258378
1.08175e-05
0.000259056
1.11027e-05
0.00025973
1.13532e-05
0.000260395
1.15706e-05
0.00026105
1.17562e-05
0.000261693
1.19116e-05
0.000262322
1.20382e-05
0.000262935
1.21374e-05
0.000263531
1.22107e-05
0.000264108
1.22592e-05
0.000264666
1.22844e-05
0.000265203
1.22875e-05
0.000265717
1.22698e-05
0.000266207
1.22323e-05
0.000266673
1.21765e-05
0.000267112
1.21037e-05
0.000267524
1.20152e-05
0.000267907
1.19125e-05
0.00026826
1.17974e-05
0.000268581
1.16718e-05
0.000268868
1.15372e-05
0.000269122
1.14001e-05
1.12359e-05
0.000250032
3.78946e-07
0.000250128
1.13729e-06
0.000250287
1.89113e-06
0.000250507
2.63479e-06
0.000250786
3.36342e-06
0.00025112
4.07273e-06
0.000251505
4.75885e-06
0.000251936
5.4184e-06
0.000252409
6.04853e-06
0.000252919
6.64694e-06
0.000253461
7.21188e-06
0.00025403
7.74214e-06
0.000254621
8.23695e-06
0.000255229
8.696e-06
0.000255851
9.11934e-06
0.000256481
9.50733e-06
0.000257117
9.86059e-06
0.000257754
1.01799e-05
0.000258391
1.04664e-05
0.000259023
1.0721e-05
0.000259649
1.0945e-05
0.000260265
1.11395e-05
0.000260871
1.13059e-05
0.000261464
1.14454e-05
0.000262042
1.15592e-05
0.000262604
1.16485e-05
0.000263149
1.17146e-05
0.000263675
1.17586e-05
0.00026418
1.17818e-05
0.000264665
1.17853e-05
0.000265127
1.17703e-05
0.000265565
1.17382e-05
0.000265979
1.16902e-05
0.000266366
1.16277e-05
0.000266726
1.15522e-05
0.000267058
1.14655e-05
0.000267361
1.13693e-05
0.000267633
1.12654e-05
0.000267874
1.11589e-05
1.10317e-05
0.000250029
3.49608e-07
0.000250117
1.0492e-06
0.000250264
1.74501e-06
0.000250466
2.43228e-06
0.000250723
3.1069e-06
0.00025103
3.7652e-06
0.000251385
4.40385e-06
0.000251784
5.01988e-06
0.000252221
5.61072e-06
0.000252694
6.17427e-06
0.000253197
6.70885e-06
0.000253726
7.21322e-06
0.000254276
7.68655e-06
0.000254844
8.12834e-06
0.000255425
8.53846e-06
0.000256015
8.91703e-06
0.000256611
9.26441e-06
0.00025721
9.58116e-06
0.000257809
9.868e-06
0.000258404
1.01258e-05
0.000258993
1.03554e-05
0.000259575
1.05579e-05
0.000260147
1.07342e-05
0.000260707
1.08855e-05
0.000261253
1.10128e-05
0.000261784
1.11172e-05
0.000262299
1.11997e-05
0.000262796
1.12616e-05
0.000263274
1.13038e-05
0.000263732
1.13275e-05
0.000264168
1.1334e-05
0.000264582
1.13243e-05
0.000264973
1.12998e-05
0.000265338
1.12619e-05
0.000265679
1.1212e-05
0.000265992
1.11518e-05
0.000266278
1.10831e-05
0.000266536
1.10075e-05
0.000266766
1.09292e-05
1.08355e-05
0.000250027
3.22446e-07
0.000250109
9.67654e-07
0.000250244
1.60973e-06
0.000250432
2.24471e-06
0.000250669
2.86916e-06
0.000250955
3.47997e-06
0.000251284
4.07429e-06
0.000251654
4.64951e-06
0.000252062
5.20336e-06
0.000252502
5.73389e-06
0.000252972
6.23954e-06
0.000253466
6.71908e-06
0.000253981
7.17159e-06
0.000254512
7.59648e-06
0.000255057
7.99345e-06
0.000255612
8.36243e-06
0.000256173
8.70356e-06
0.000256737
9.01718e-06
0.000257301
9.30378e-06
0.000257863
9.56396e-06
0.00025842
9.79842e-06
0.00025897
1.00079e-05
0.000259511
1.01934e-05
0.000260041
1.03556e-05
0.000260558
1.04955e-05
0.000261061
1.0614e-05
0.000261549
1.07121e-05
0.000262019
1.07908e-05
0.000262472
1.08511e-05
0.000262906
1.08941e-05
0.000263319
1.09208e-05
0.000263711
1.09324e-05
0.00026408
1.09302e-05
0.000264427
1.09155e-05
0.000264749
1.08897e-05
0.000265047
1.08544e-05
0.000265318
1.08112e-05
0.000265564
1.07618e-05
0.000265784
1.07095e-05
1.06466e-05
0.000250025
2.97094e-07
0.000250101
8.91542e-07
0.000250228
1.48345e-06
0.000250403
2.06958e-06
0.000250625
2.64712e-06
0.000250891
3.21346e-06
0.0002512
3.76618e-06
0.000251546
4.30301e-06
0.000251927
4.82194e-06
0.00025234
5.3212e-06
0.00025278
5.79931e-06
0.000253244
6.25507e-06
0.000253728
6.68752e-06
0.000254229
7.09599e-06
0.000254742
7.48005e-06
0.000255265
7.83945e-06
0.000255795
8.17416e-06
0.000256328
8.48434e-06
0.000256861
8.77024e-06
0.000257393
9.03228e-06
0.00025792
9.27096e-06
0.000258441
9.48686e-06
0.000258954
9.68063e-06
0.000259457
9.85299e-06
0.000259947
1.00047e-05
0.000260425
1.01365e-05
0.000260888
1.02494e-05
0.000261334
1.0344e-05
0.000261764
1.04215e-05
0.000262175
1.04827e-05
0.000262568
1.05286e-05
0.00026294
1.05605e-05
0.00026329
1.05793e-05
0.000263619
1.05865e-05
0.000263926
1.05833e-05
0.000264209
1.05712e-05
0.000264468
1.05518e-05
0.000264703
1.05268e-05
0.000264914
1.04986e-05
1.0464e-05
0.000250024
2.73217e-07
0.000250096
8.19859e-07
0.000250214
1.36452e-06
0.000250379
1.90466e-06
0.000250589
2.43801e-06
0.00025084
2.96245e-06
0.00025113
3.47592e-06
0.000251456
3.9765e-06
0.000251816
4.46239e-06
0.000252205
4.93199e-06
0.00025262
5.3839e-06
0.000253059
5.81695e-06
0.000253516
6.23017e-06
0.000253989
6.62281e-06
0.000254475
6.99431e-06
0.00025497
7.34431e-06
0.000255472
7.67263e-06
0.000255977
7.97921e-06
0.000256483
8.26416e-06
0.000256987
8.5277e-06
0.000257488
8.77015e-06
0.000257983
8.9919e-06
0.00025847
9.19345e-06
0.000258948
9.37534e-06
0.000259414
9.53818e-06
0.000259868
9.68263e-06
0.000260308
9.80939e-06
0.000260733
9.91924e-06
0.000261142
1.0013e-05
0.000261533
1.00915e-05
0.000261906
1.01557e-05
0.000262259
1.02067e-05
0.000262593
1.02454e-05
0.000262907
1.02732e-05
0.000263199
1.02912e-05
0.000263469
1.03009e-05
0.000263717
1.03038e-05
0.000263942
1.03014e-05
0.000264146
1.02955e-05
1.02869e-05
0.000250023
2.505e-07
0.000250091
7.51661e-07
0.000250204
1.25139e-06
0.000250361
1.74782e-06
0.00025056
2.23923e-06
0.000250798
2.72391e-06
0.000251074
3.20018e-06
0.000251384
3.66638e-06
0.000251726
4.12093e-06
0.000252095
4.56237e-06
0.00025249
4.98939e-06
0.000252906
5.40082e-06
0.00025334
5.79569e-06
0.00025379
6.17317e-06
0.000254252
6.53262e-06
0.000254722
6.87355e-06
0.000255199
7.19563e-06
0.00025568
7.49866e-06
0.000256161
7.78257e-06
0.000256642
8.04743e-06
0.000257119
8.29336e-06
0.00025759
8.52062e-06
0.000258054
8.72952e-06
0.000258509
8.92045e-06
0.000258953
9.09389e-06
0.000259385
9.25034e-06
0.000259804
9.3904e-06
0.000260209
9.51471e-06
0.000260598
9.62397e-06
0.00026097
9.71896e-06
0.000261326
9.80053e-06
0.000261663
9.8696e-06
0.000261981
9.92718e-06
0.00026228
9.97435e-06
0.000262559
1.00123e-05
0.000262817
1.00424e-05
0.000263055
1.00659e-05
0.000263272
1.00845e-05
0.000263468
1.00993e-05
1.01147e-05