/*--------------------------------*- C++ -*----------------------------------*\
| =========                 |                                                 |
| \\      /  F ield         | OpenFOAM: The Open Source CFD Toolbox           |
|  \\    /   O peration     | Version:  v1906                                 |
|   \\  /    A nd           | Web:      www.OpenFOAM.com                      |
|    \\/     M anipulation  |                                                 |
\*---------------------------------------------------------------------------*/
FoamFile
{
    version     2.0;
    format      ascii;
    class       volVectorField;
    location    "0.6";
    object      U;
}
// * * * * * * * * * * * * * * * * * * * * * * * * * * * * * * * * * * * * * //

dimensions      [0 1 -1 0 0 0 0];


internalField   nonuniform List<vector> 
1600
(
(8.101 0.891241 0)
(7.08777 1.1084 0)
(5.651 0.82066 0)
(4.37142 0.527764 0)
(3.51652 0.32301 0)
(2.9603 0.196869 0)
(2.5767 0.124439 0)
(2.29941 0.0837189 0)
(2.09095 0.0603088 0)
(1.92786 0.0461397 0)
(1.79574 0.0369642 0)
(1.68582 0.0305951 0)
(1.59253 0.0259053 0)
(1.51214 0.0222957 0)
(1.44202 0.0194277 0)
(1.38025 0.0170955 0)
(1.32539 0.0151653 0)
(1.27632 0.0135449 0)
(1.23217 0.0121683 0)
(1.19225 0.0109864 0)
(1.15597 0.00996202 0)
(1.12289 0.0090664 0)
(1.09261 0.00827701 0)
(1.06483 0.00757595 0)
(1.03928 0.00694886 0)
(1.01573 0.00638408 0)
(0.993993 0.00587213 0)
(0.973905 0.0054053 0)
(0.955326 0.00497732 0)
(0.938136 0.00458328 0)
(0.922228 0.00421963 0)
(0.907508 0.00388454 0)
(0.893884 0.00357878 0)
(0.881266 0.00330808 0)
(0.869544 0.00308906 0)
(0.858566 0.00296262 0)
(0.848133 0.00301492 0)
(0.837777 0.00343079 0)
(0.825195 0.00468136 0)
(0.808682 0.00706079 0)
(10.0486 1.539 0)
(10.4597 2.2675 0)
(10.0952 2.02588 0)
(9.26488 1.58294 0)
(8.37869 1.17247 0)
(7.58215 0.852447 0)
(6.89811 0.624821 0)
(6.32308 0.469684 0)
(5.84423 0.364423 0)
(5.44431 0.291619 0)
(5.107 0.239681 0)
(4.8191 0.201327 0)
(4.57054 0.172064 0)
(4.35367 0.149101 0)
(4.16269 0.130657 0)
(3.99314 0.115556 0)
(3.84156 0.102995 0)
(3.7052 0.0924049 0)
(3.58187 0.0833724 0)
(3.46982 0.0755893 0)
(3.3676 0.0688208 0)
(3.274 0.0628851 0)
(3.18804 0.0576394 0)
(3.10888 0.0529699 0)
(3.03582 0.0487848 0)
(2.96827 0.0450098 0)
(2.90571 0.0415838 0)
(2.8477 0.0384568 0)
(2.79386 0.0355879 0)
(2.74388 0.0329443 0)
(2.69746 0.0305012 0)
(2.65433 0.0282424 0)
(2.61427 0.0261641 0)
(2.57704 0.0242814 0)
(2.54238 0.0226449 0)
(2.50999 0.0213761 0)
(2.47953 0.0207195 0)
(2.45058 0.0211119 0)
(2.42035 0.0235031 0)
(2.38493 0.0288863 0)
(10.1375 1.01381 0)
(10.7552 1.98137 0)
(11.0903 2.18428 0)
(11.0307 2.05757 0)
(10.7077 1.80771 0)
(10.2497 1.52857 0)
(9.73668 1.2695 0)
(9.21954 1.05049 0)
(8.72802 0.873617 0)
(8.27563 0.733421 0)
(7.86579 0.622694 0)
(7.49702 0.534773 0)
(7.16577 0.464239 0)
(6.86791 0.406941 0)
(6.59936 0.359789 0)
(6.35644 0.320499 0)
(6.13592 0.287378 0)
(5.93502 0.25916 0)
(5.75138 0.234885 0)
(5.58299 0.213818 0)
(5.42812 0.195387 0)
(5.28533 0.179139 0)
(5.15336 0.164715 0)
(5.03113 0.151825 0)
(4.91774 0.140235 0)
(4.81237 0.12975 0)
(4.71434 0.12021 0)
(4.62305 0.111484 0)
(4.53799 0.103463 0)
(4.45868 0.0960568 0)
(4.38473 0.089196 0)
(4.31578 0.0828312 0)
(4.25151 0.0769385 0)
(4.1916 0.0715295 0)
(4.13576 0.0666731 0)
(4.08367 0.0625398 0)
(4.03504 0.0594668 0)
(3.98983 0.0579738 0)
(3.94617 0.0588068 0)
(3.8959 0.0636413 0)
(10.068 0.568826 0)
(10.5037 1.40451 0)
(10.9793 1.83685 0)
(11.2902 1.98414 0)
(11.3911 1.95721 0)
(11.3186 1.83135 0)
(11.1218 1.66063 0)
(10.8447 1.48002 0)
(10.523 1.30822 0)
(10.1825 1.15337 0)
(9.84019 1.01779 0)
(9.50661 0.900908 0)
(9.18762 0.800823 0)
(8.88616 0.715239 0)
(8.6033 0.641905 0)
(8.33897 0.578813 0)
(8.09252 0.52425 0)
(7.86293 0.476792 0)
(7.64909 0.435267 0)
(7.44983 0.398715 0)
(7.26403 0.366352 0)
(7.09063 0.337531 0)
(6.92867 0.311722 0)
(6.77725 0.288484 0)
(6.63557 0.26745 0)
(6.50291 0.248311 0)
(6.37863 0.23081 0)
(6.26213 0.214729 0)
(6.15291 0.199885 0)
(6.05051 0.186124 0)
(5.95452 0.173324 0)
(5.86458 0.161391 0)
(5.78035 0.150267 0)
(5.70155 0.139937 0)
(5.62791 0.130453 0)
(5.55921 0.121967 0)
(5.49527 0.114786 0)
(5.43628 0.109394 0)
(5.38192 0.106087 0)
(5.31861 0.10711 0)
(10.0307 0.34863 0)
(10.2888 0.977786 0)
(10.6757 1.42422 0)
(11.0501 1.6844 0)
(11.3258 1.799 0)
(11.4834 1.8096 0)
(11.5317 1.75239 0)
(11.4881 1.65618 0)
(11.3731 1.54127 0)
(11.2066 1.4207 0)
(11.0052 1.30233 0)
(10.7825 1.19051 0)
(10.5484 1.08735 0)
(10.3102 0.99353 0)
(10.073 0.908924 0)
(9.84049 0.832966 0)
(9.6148 0.764894 0)
(9.39738 0.703888 0)
(9.18901 0.64914 0)
(8.99006 0.599902 0)
(8.80061 0.555495 0)
(8.62054 0.515317 0)
(8.44962 0.478838 0)
(8.28753 0.445595 0)
(8.13394 0.415185 0)
(7.98848 0.387257 0)
(7.85079 0.361506 0)
(7.72052 0.337666 0)
(7.59733 0.31551 0)
(7.48092 0.29484 0)
(7.37099 0.275491 0)
(7.26728 0.257332 0)
(7.16957 0.240265 0)
(7.07765 0.224239 0)
(6.99138 0.209258 0)
(6.91065 0.19541 0)
(6.83548 0.182885 0)
(6.76601 0.17207 0)
(6.70386 0.162803 0)
(6.6296 0.157333 0)
(10.0157 0.238712 0)
(10.1659 0.704011 0)
(10.434 1.08699 0)
(10.7488 1.361 0)
(11.0423 1.53495 0)
(11.2811 1.6267 0)
(11.4532 1.6549 0)
(11.557 1.63715 0)
(11.5972 1.58842 0)
(11.5823 1.52033 0)
(11.5222 1.44143 0)
(11.4263 1.35773 0)
(11.3034 1.27332 0)
(11.1607 1.19084 0)
(11.0042 1.1119 0)
(10.839 1.03739 0)
(10.6687 0.967695 0)
(10.4965 0.902896 0)
(10.3245 0.842869 0)
(10.1544 0.787375 0)
(9.98755 0.736108 0)
(9.82476 0.688735 0)
(9.66668 0.644919 0)
(9.51373 0.60433 0)
(9.36619 0.566655 0)
(9.22422 0.531602 0)
(9.08789 0.498902 0)
(8.95722 0.468308 0)
(8.83219 0.439598 0)
(8.71275 0.412573 0)
(8.59884 0.387057 0)
(8.49041 0.362899 0)
(8.38739 0.339979 0)
(8.28976 0.318207 0)
(8.19752 0.297537 0)
(8.11072 0.277977 0)
(8.0296 0.259571 0)
(7.95403 0.24258 0)
(7.88776 0.226532 0)
(7.80581 0.212699 0)
(10.0094 0.176237 0)
(10.1013 0.528082 0)
(10.2804 0.84048 0)
(10.5159 1.08996 0)
(10.7653 1.27454 0)
(11.0007 1.40056 0)
(11.2062 1.47644 0)
(11.3728 1.51144 0)
(11.4967 1.51469 0)
(11.5782 1.49433 0)
(11.6201 1.4571 0)
(11.6266 1.40839 0)
(11.6026 1.3524 0)
(11.5529 1.2923 0)
(11.4822 1.2304 0)
(11.3947 1.16837 0)
(11.294 1.10737 0)
(11.1834 1.04818 0)
(11.0656 0.991279 0)
(10.9428 0.936934 0)
(10.8168 0.885272 0)
(10.6893 0.836308 0)
(10.5614 0.789986 0)
(10.4342 0.746201 0)
(10.3083 0.704815 0)
(10.1846 0.665674 0)
(10.0634 0.628615 0)
(9.94527 0.593473 0)
(9.83038 0.560082 0)
(9.71905 0.528285 0)
(9.61148 0.497933 0)
(9.50784 0.468886 0)
(9.40829 0.441021 0)
(9.313 0.414229 0)
(9.22216 0.388419 0)
(9.13596 0.363532 0)
(9.05489 0.339482 0)
(8.97844 0.316373 0)
(8.9123 0.293699 0)
(8.8271 0.270696 0)
(10.0063 0.137039 0)
(10.0666 0.412016 0)
(10.1886 0.666104 0)
(10.3594 0.882326 0)
(10.5546 1.05597 0)
(10.7549 1.18872 0)
(10.9476 1.28428 0)
(11.1234 1.34737 0)
(11.276 1.38314 0)
(11.4021 1.39665 0)
(11.5003 1.39248 0)
(11.571 1.37462 0)
(11.6158 1.34645 0)
(11.6367 1.31076 0)
(11.6363 1.26979 0)
(11.617 1.22533 0)
(11.5816 1.17879 0)
(11.5323 1.13123 0)
(11.4716 1.08349 0)
(11.4014 1.03614 0)
(11.3236 0.989617 0)
(11.2399 0.944222 0)
(11.1516 0.900141 0)
(11.0599 0.857487 0)
(10.966 0.816307 0)
(10.8707 0.776605 0)
(10.7748 0.738349 0)
(10.679 0.701482 0)
(10.5839 0.665927 0)
(10.4899 0.631596 0)
(10.3975 0.598392 0)
(10.307 0.566212 0)
(10.2189 0.534948 0)
(10.1334 0.504493 0)
(10.0509 0.474729 0)
(9.9717 0.445549 0)
(9.89657 0.416777 0)
(9.82454 0.388333 0)
(9.76285 0.359984 0)
(9.67948 0.328177 0)
(10.0045 0.110539 0)
(10.0467 0.332228 0)
(10.133 0.541556 0)
(10.2581 0.726709 0)
(10.4074 0.882888 0)
(10.5686 1.00993 0)
(10.7329 1.10949 0)
(10.8929 1.18407 0)
(11.043 1.23665 0)
(11.1792 1.27031 0)
(11.2986 1.28805 0)
(11.4 1.29259 0)
(11.4827 1.28635 0)
(11.5471 1.27147 0)
(11.5937 1.24977 0)
(11.6237 1.22279 0)
(11.6384 1.19183 0)
(11.6392 1.15796 0)
(11.6274 1.12203 0)
(11.6047 1.08477 0)
(11.5724 1.04672 0)
(11.5317 1.00833 0)
(11.484 0.969927 0)
(11.4303 0.931771 0)
(11.3717 0.894043 0)
(11.3092 0.85687 0)
(11.2435 0.820331 0)
(11.1754 0.784469 0)
(11.1057 0.749291 0)
(11.0348 0.714782 0)
(10.9634 0.680901 0)
(10.892 0.647591 0)
(10.8211 0.614774 0)
(10.751 0.582353 0)
(10.6823 0.550206 0)
(10.6153 0.518192 0)
(10.551 0.486098 0)
(10.488 0.453637 0)
(10.4344 0.421086 0)
(10.3578 0.381895 0)
(10.0034 0.0915149 0)
(10.0344 0.274797 0)
(10.0979 0.450073 0)
(10.1916 0.609079 0)
(10.3065 0.747619 0)
(10.4346 0.864756 0)
(10.5696 0.961123 0)
(10.7066 1.03812 0)
(10.841 1.09756 0)
(10.9695 1.14147 0)
(11.0893 1.17182 0)
(11.1986 1.19051 0)
(11.2962 1.19926 0)
(11.3812 1.1996 0)
(11.4534 1.19291 0)
(11.5129 1.1804 0)
(11.5601 1.16312 0)
(11.5953 1.14198 0)
(11.6195 1.11773 0)
(11.6332 1.09105 0)
(11.6373 1.06248 0)
(11.6328 1.03248 0)
(11.6204 1.00144 0)
(11.601 0.969658 0)
(11.5754 0.937384 0)
(11.5444 0.90481 0)
(11.5087 0.872081 0)
(11.469 0.839304 0)
(11.426 0.806546 0)
(11.3802 0.773846 0)
(11.3322 0.74121 0)
(11.2826 0.708618 0)
(11.2317 0.67602 0)
(11.1803 0.643338 0)
(11.1286 0.610452 0)
(11.077 0.577203 0)
(11.0267 0.543384 0)
(10.9759 0.50851 0)
(10.9329 0.473458 0)
(10.8671 0.429041 0)
(10.0026 0.0772439 0)
(10.0262 0.23179 0)
(10.0747 0.380822 0)
(10.1467 0.518442 0)
(10.2366 0.641167 0)
(10.3388 0.747751 0)
(10.4491 0.838233 0)
(10.5637 0.913362 0)
(10.6795 0.974306 0)
(10.7937 1.02244 0)
(10.9041 1.05918 0)
(11.0091 1.08589 0)
(11.1074 1.10384 0)
(11.1979 1.11417 0)
(11.28 1.11793 0)
(11.3533 1.11603 0)
(11.4176 1.10929 0)
(11.4729 1.09843 0)
(11.5193 1.08407 0)
(11.5572 1.06676 0)
(11.5868 1.04698 0)
(11.6087 1.02515 0)
(11.6231 1.0016 0)
(11.6308 0.976654 0)
(11.6322 0.950546 0)
(11.6278 0.923487 0)
(11.6182 0.895642 0)
(11.6038 0.867143 0)
(11.5853 0.838084 0)
(11.5631 0.808531 0)
(11.5376 0.778518 0)
(11.5094 0.748046 0)
(11.4789 0.717086 0)
(11.4465 0.685572 0)
(11.4126 0.653396 0)
(11.3776 0.620388 0)
(11.3424 0.586375 0)
(11.3055 0.550712 0)
(11.2742 0.51482 0)
(11.2215 0.467652 0)
(10.0021 0.0661969 0)
(10.0206 0.198565 0)
(10.0585 0.326975 0)
(10.1153 0.447119 0)
(10.1869 0.556166 0)
(10.2696 0.652802 0)
(10.3602 0.736716 0)
(10.4559 0.808231 0)
(10.5543 0.868073 0)
(10.6533 0.917197 0)
(10.7513 0.956649 0)
(10.8469 0.987466 0)
(10.9389 1.01063 0)
(11.0264 1.02704 0)
(11.1088 1.03751 0)
(11.1855 1.04277 0)
(11.2562 1.04346 0)
(11.3205 1.04015 0)
(11.3783 1.03333 0)
(11.4297 1.02347 0)
(11.4746 1.01093 0)
(11.5132 0.996074 0)
(11.5456 0.979185 0)
(11.5722 0.960525 0)
(11.5931 0.940314 0)
(11.6087 0.91874 0)
(11.6192 0.895958 0)
(11.6251 0.872093 0)
(11.6267 0.847243 0)
(11.6242 0.821477 0)
(11.6181 0.794835 0)
(11.6088 0.767327 0)
(11.5964 0.738932 0)
(11.5815 0.709592 0)
(11.5643 0.679209 0)
(11.545 0.647613 0)
(11.5244 0.614673 0)
(11.5011 0.579654 0)
(11.4814 0.544353 0)
(11.4425 0.496825 0)
(10.0017 0.0574366 0)
(10.0165 0.172254 0)
(10.0468 0.284143 0)
(10.0925 0.389885 0)
(10.1507 0.487199 0)
(10.2185 0.574832 0)
(10.2937 0.652288 0)
(10.374 0.719602 0)
(10.4577 0.777182 0)
(10.5431 0.825675 0)
(10.6288 0.865846 0)
(10.7138 0.898498 0)
(10.7971 0.924412 0)
(10.8779 0.944322 0)
(10.9558 0.958895 0)
(11.0301 0.968731 0)
(11.1004 0.974363 0)
(11.1665 0.97626 0)
(11.2282 0.974836 0)
(11.2852 0.970452 0)
(11.3375 0.963427 0)
(11.385 0.95404 0)
(11.4278 0.942533 0)
(11.4658 0.929118 0)
(11.4992 0.913979 0)
(11.5281 0.89727 0)
(11.5527 0.879123 0)
(11.573 0.859644 0)
(11.5894 0.838916 0)
(11.6019 0.816998 0)
(11.6109 0.793925 0)
(11.6165 0.769705 0)
(11.6189 0.744318 0)
(11.6184 0.717707 0)
(11.6153 0.689786 0)
(11.6095 0.660393 0)
(11.6017 0.629435 0)
(11.5906 0.596166 0)
(11.5812 0.562553 0)
(11.5555 0.516669 0)
(10.0014 0.0503513 0)
(10.0135 0.150992 0)
(10.0382 0.249411 0)
(10.0756 0.343158 0)
(10.1235 0.430397 0)
(10.1799 0.509995 0)
(10.243 0.581377 0)
(10.3111 0.644399 0)
(10.3827 0.699239 0)
(10.4565 0.746308 0)
(10.5313 0.786151 0)
(10.6063 0.819378 0)
(10.6807 0.846612 0)
(10.7538 0.868455 0)
(10.8252 0.885469 0)
(10.8944 0.898164 0)
(10.9611 0.906998 0)
(11.0251 0.912374 0)
(11.086 0.914649 0)
(11.1437 0.914131 0)
(11.1981 0.911093 0)
(11.249 0.905767 0)
(11.2963 0.898358 0)
(11.3401 0.88904 0)
(11.3803 0.877963 0)
(11.4168 0.865255 0)
(11.4499 0.851021 0)
(11.4794 0.835345 0)
(11.5055 0.818294 0)
(11.5283 0.799912 0)
(11.5478 0.780223 0)
(11.5642 0.759228 0)
(11.5775 0.736906 0)
(11.5879 0.713202 0)
(11.5956 0.68804 0)
(11.6004 0.661275 0)
(11.6028 0.632846 0)
(11.6017 0.602061 0)
(11.6007 0.570875 0)
(11.5864 0.528097 0)
(10.0011 0.0445246 0)
(10.0112 0.133514 0)
(10.0317 0.220785 0)
(10.0627 0.304437 0)
(10.1028 0.382987 0)
(10.1503 0.45544 0)
(10.2038 0.521213 0)
(10.262 0.580053 0)
(10.3237 0.631988 0)
(10.3878 0.677247 0)
(10.4534 0.716202 0)
(10.5195 0.749304 0)
(10.5857 0.777039 0)
(10.6514 0.799895 0)
(10.716 0.818343 0)
(10.7794 0.832821 0)
(10.8412 0.843728 0)
(10.9011 0.851421 0)
(10.959 0.856215 0)
(11.0146 0.858385 0)
(11.0679 0.858172 0)
(11.1187 0.855782 0)
(11.1669 0.851394 0)
(11.2124 0.845157 0)
(11.2552 0.837201 0)
(11.2953 0.827631 0)
(11.3326 0.816535 0)
(11.367 0.80398 0)
(11.3987 0.790017 0)
(11.4276 0.77468 0)
(11.4536 0.757983 0)
(11.477 0.739924 0)
(11.4976 0.720477 0)
(11.5154 0.699595 0)
(11.5306 0.677213 0)
(11.543 0.653208 0)
(11.5529 0.627548 0)
(11.5592 0.599638 0)
(11.5646 0.57129 0)
(11.5594 0.532509 0)
(10.001 0.039664 0)
(10.0094 0.118938 0)
(10.0266 0.19686 0)
(10.0528 0.271932 0)
(10.0866 0.342948 0)
(10.127 0.409051 0)
(10.1728 0.469682 0)
(10.2231 0.524539 0)
(10.2767 0.573548 0)
(10.3327 0.616813 0)
(10.3904 0.654568 0)
(10.4491 0.687136 0)
(10.5081 0.714884 0)
(10.567 0.738201 0)
(10.6254 0.757476 0)
(10.683 0.773079 0)
(10.7396 0.785357 0)
(10.7949 0.794625 0)
(10.8488 0.801166 0)
(10.9011 0.80523 0)
(10.9517 0.807036 0)
(11.0005 0.806772 0)
(11.0474 0.804602 0)
(11.0923 0.800661 0)
(11.1351 0.795064 0)
(11.1758 0.787907 0)
(11.2144 0.779266 0)
(11.2508 0.769198 0)
(11.2849 0.757746 0)
(11.3167 0.744937 0)
(11.3462 0.730782 0)
(11.3733 0.715275 0)
(11.3981 0.698396 0)
(11.4204 0.680106 0)
(11.4403 0.660354 0)
(11.4576 0.639045 0)
(11.4723 0.616169 0)
(11.4838 0.591252 0)
(11.4935 0.565891 0)
(11.4951 0.531497 0)
(10.0008 0.0355585 0)
(10.008 0.106627 0)
(10.0226 0.176617 0)
(10.0449 0.24433 0)
(10.0738 0.308779 0)
(10.1085 0.36923 0)
(10.1481 0.425167 0)
(10.1918 0.476273 0)
(10.2387 0.522414 0)
(10.288 0.563605 0)
(10.3391 0.59998 0)
(10.3913 0.631759 0)
(10.4441 0.659211 0)
(10.4971 0.682639 0)
(10.5499 0.702355 0)
(10.6022 0.718669 0)
(10.6539 0.731877 0)
(10.7047 0.742254 0)
(10.7544 0.750052 0)
(10.803 0.755499 0)
(10.8503 0.758794 0)
(10.8963 0.760113 0)
(10.9408 0.759607 0)
(10.9837 0.757404 0)
(11.0251 0.753613 0)
(11.0648 0.748322 0)
(11.1029 0.741602 0)
(11.1391 0.733508 0)
(11.1736 0.724081 0)
(11.2062 0.713346 0)
(11.2369 0.701314 0)
(11.2655 0.687984 0)
(11.2922 0.673343 0)
(11.3166 0.657363 0)
(11.3389 0.640011 0)
(11.3588 0.621222 0)
(11.3764 0.601006 0)
(11.3909 0.579011 0)
(11.4033 0.556598 0)
(11.4094 0.526598 0)
(10.0007 0.0320523 0)
(10.0068 0.0961148 0)
(10.0194 0.159305 0)
(10.0386 0.220653 0)
(10.0635 0.279345 0)
(10.0936 0.334754 0)
(10.1281 0.386415 0)
(10.1663 0.434014 0)
(10.2076 0.477385 0)
(10.2513 0.516487 0)
(10.2967 0.55138 0)
(10.3434 0.582203 0)
(10.3909 0.60915 0)
(10.4387 0.632448 0)
(10.4866 0.652344 0)
(10.5343 0.669091 0)
(10.5815 0.682937 0)
(10.6281 0.69412 0)
(10.6739 0.70286 0)
(10.7188 0.709361 0)
(10.7628 0.713804 0)
(10.8056 0.716353 0)
(10.8473 0.717148 0)
(10.8878 0.716311 0)
(10.927 0.713946 0)
(10.9649 0.710139 0)
(11.0014 0.70496 0)
(11.0364 0.698465 0)
(11.07 0.690693 0)
(11.102 0.681674 0)
(11.1323 0.671425 0)
(11.161 0.659952 0)
(11.1879 0.64725 0)
(11.2129 0.633308 0)
(11.236 0.61811 0)
(11.2569 0.601622 0)
(11.2757 0.583872 0)
(11.2917 0.564618 0)
(11.3055 0.544995 0)
(11.3144 0.519146 0)
(10.0006 0.0290283 0)
(10.0059 0.0870484 0)
(10.0168 0.144355 0)
(10.0334 0.200155 0)
(10.0552 0.253773 0)
(10.0814 0.304672 0)
(10.1117 0.352439 0)
(10.1454 0.396775 0)
(10.1819 0.4375 0)
(10.2208 0.474537 0)
(10.2615 0.507896 0)
(10.3034 0.537656 0)
(10.3463 0.563949 0)
(10.3896 0.586943 0)
(10.4332 0.606828 0)
(10.4767 0.623808 0)
(10.52 0.638085 0)
(10.5628 0.649861 0)
(10.6051 0.659328 0)
(10.6466 0.666663 0)
(10.6873 0.672031 0)
(10.7271 0.675579 0)
(10.766 0.677439 0)
(10.8039 0.677727 0)
(10.8407 0.67654 0)
(10.8763 0.673964 0)
(10.9108 0.670069 0)
(10.9441 0.664911 0)
(10.976 0.658535 0)
(11.0067 0.650974 0)
(11.0359 0.642254 0)
(11.0637 0.632387 0)
(11.0899 0.621384 0)
(11.1144 0.609246 0)
(11.1372 0.595976 0)
(11.1581 0.581569 0)
(11.1769 0.566069 0)
(11.1934 0.549325 0)
(11.2077 0.532272 0)
(11.2179 0.510195 0)
(10.0005 0.0263968 0)
(10.0052 0.0791588 0)
(10.0147 0.131332 0)
(10.0292 0.182261 0)
(10.0483 0.231381 0)
(10.0714 0.278234 0)
(10.0981 0.322453 0)
(10.128 0.363762 0)
(10.1606 0.401978 0)
(10.1953 0.437002 0)
(10.2319 0.468811 0)
(10.2697 0.497441 0)
(10.3086 0.522976 0)
(10.348 0.545536 0)
(10.3878 0.565265 0)
(10.4277 0.582322 0)
(10.4674 0.596872 0)
(10.5069 0.609084 0)
(10.5459 0.619118 0)
(10.5844 0.627131 0)
(10.6221 0.633266 0)
(10.6591 0.637657 0)
(10.6954 0.640425 0)
(10.7307 0.641677 0)
(10.7651 0.641506 0)
(10.7984 0.639995 0)
(10.8308 0.637215 0)
(10.8621 0.633222 0)
(10.8922 0.628066 0)
(10.9212 0.621786 0)
(10.9489 0.614413 0)
(10.9753 0.605972 0)
(11.0002 0.596483 0)
(11.0237 0.585963 0)
(11.0456 0.574432 0)
(11.0658 0.561908 0)
(11.0841 0.548448 0)
(11.1003 0.533974 0)
(11.1143 0.519251 0)
(11.1251 0.500517 0)
(10.0005 0.0240881 0)
(10.0046 0.0722369 0)
(10.013 0.119896 0)
(10.0258 0.166519 0)
(10.0426 0.211632 0)
(10.0631 0.254841 0)
(10.0868 0.295824 0)
(10.1135 0.334329 0)
(10.1426 0.370177 0)
(10.1739 0.403259 0)
(10.2069 0.433529 0)
(10.2412 0.460992 0)
(10.2765 0.485698 0)
(10.3125 0.507727 0)
(10.349 0.527187 0)
(10.3856 0.544199 0)
(10.4223 0.558897 0)
(10.4587 0.571416 0)
(10.4948 0.581894 0)
(10.5305 0.590462 0)
(10.5656 0.597246 0)
(10.6001 0.602365 0)
(10.6338 0.605928 0)
(10.6668 0.608032 0)
(10.6989 0.608767 0)
(10.7301 0.608211 0)
(10.7604 0.606432 0)
(10.7897 0.603491 0)
(10.818 0.599438 0)
(10.8451 0.594319 0)
(10.8712 0.588169 0)
(10.896 0.581024 0)
(10.9195 0.572914 0)
(10.9417 0.563868 0)
(10.9623 0.553921 0)
(10.9815 0.543109 0)
(10.9989 0.5315 0)
(11.0144 0.51907 0)
(11.028 0.506443 0)
(11.0386 0.490634 0)
(10.0004 0.022047 0)
(10.0041 0.0661173 0)
(10.0115 0.109777 0)
(10.0229 0.152569 0)
(10.0379 0.194092 0)
(10.0561 0.234009 0)
(10.0774 0.272035 0)
(10.1013 0.307944 0)
(10.1275 0.341565 0)
(10.1558 0.372786 0)
(10.1856 0.401546 0)
(10.2169 0.427831 0)
(10.2491 0.451661 0)
(10.2821 0.473091 0)
(10.3156 0.492194 0)
(10.3494 0.509065 0)
(10.3832 0.523807 0)
(10.417 0.53653 0)
(10.4505 0.547347 0)
(10.4837 0.556371 0)
(10.5164 0.563708 0)
(10.5485 0.569463 0)
(10.58 0.573732 0)
(10.6108 0.576605 0)
(10.6409 0.578164 0)
(10.6701 0.578482 0)
(10.6984 0.577628 0)
(10.7259 0.575659 0)
(10.7523 0.572629 0)
(10.7778 0.568586 0)
(10.8022 0.563573 0)
(10.8254 0.55763 0)
(10.8474 0.550797 0)
(10.8682 0.543114 0)
(10.8876 0.534626 0)
(10.9055 0.525384 0)
(10.9219 0.515462 0)
(10.9366 0.504873 0)
(10.9495 0.494129 0)
(10.9597 0.480868 0)
(10.0004 0.0202295 0)
(10.0036 0.0606678 0)
(10.0103 0.10076 0)
(10.0205 0.140122 0)
(10.0339 0.178413 0)
(10.0503 0.215342 0)
(10.0694 0.250661 0)
(10.0909 0.284164 0)
(10.1147 0.315695 0)
(10.1403 0.345142 0)
(10.1675 0.372436 0)
(10.196 0.397547 0)
(10.2256 0.420478 0)
(10.2559 0.441258 0)
(10.2868 0.459941 0)
(10.318 0.476594 0)
(10.3494 0.491296 0)
(10.3807 0.504137 0)
(10.4119 0.515208 0)
(10.4428 0.524601 0)
(10.4734 0.53241 0)
(10.5034 0.538723 0)
(10.5329 0.543626 0)
(10.5617 0.547198 0)
(10.5899 0.549515 0)
(10.6173 0.550646 0)
(10.6438 0.550654 0)
(10.6695 0.549597 0)
(10.6943 0.54753 0)
(10.7182 0.544501 0)
(10.741 0.540559 0)
(10.7627 0.535747 0)
(10.7833 0.530113 0)
(10.8028 0.523705 0)
(10.8209 0.516574 0)
(10.8377 0.50878 0)
(10.853 0.500403 0)
(10.8668 0.491481 0)
(10.879 0.482432 0)
(10.8886 0.471394 0)
(10.0003 0.0185997 0)
(10.0033 0.0557813 0)
(10.0092 0.0926708 0)
(10.0184 0.128943 0)
(10.0305 0.164307 0)
(10.0453 0.198514 0)
(10.0626 0.231346 0)
(10.0822 0.262621 0)
(10.1038 0.292192 0)
(10.1271 0.319953 0)
(10.152 0.345831 0)
(10.1782 0.369786 0)
(10.2053 0.391809 0)
(10.2333 0.411911 0)
(10.2618 0.430125 0)
(10.2908 0.446501 0)
(10.3199 0.461098 0)
(10.3491 0.473985 0)
(10.3782 0.485236 0)
(10.4071 0.494928 0)
(10.4357 0.503137 0)
(10.4638 0.509941 0)
(10.4915 0.515413 0)
(10.5185 0.519625 0)
(10.5449 0.522643 0)
(10.5707 0.524532 0)
(10.5956 0.525351 0)
(10.6198 0.525156 0)
(10.643 0.524001 0)
(10.6654 0.521936 0)
(10.6868 0.519009 0)
(10.7072 0.515271 0)
(10.7265 0.510771 0)
(10.7446 0.505561 0)
(10.7616 0.4997 0)
(10.7773 0.493252 0)
(10.7917 0.486299 0)
(10.8046 0.478892 0)
(10.8161 0.471375 0)
(10.825 0.462293 0)
(10.0003 0.0171283 0)
(10.003 0.0513696 0)
(10.0084 0.0853636 0)
(10.0167 0.118835 0)
(10.0277 0.151536 0)
(10.0411 0.183252 0)
(10.0569 0.213794 0)
(10.0747 0.242998 0)
(10.0944 0.270732 0)
(10.1158 0.296894 0)
(10.1387 0.321412 0)
(10.1628 0.34424 0)
(10.1879 0.365358 0)
(10.2137 0.384765 0)
(10.2402 0.40248 0)
(10.2671 0.418535 0)
(10.2942 0.432974 0)
(10.3215 0.44585 0)
(10.3487 0.457221 0)
(10.3758 0.467149 0)
(10.4026 0.475698 0)
(10.429 0.482933 0)
(10.455 0.488918 0)
(10.4804 0.493714 0)
(10.5053 0.497383 0)
(10.5295 0.499981 0)
(10.553 0.501564 0)
(10.5757 0.502186 0)
(10.5976 0.501898 0)
(10.6186 0.500749 0)
(10.6387 0.498791 0)
(10.6578 0.496073 0)
(10.676 0.492648 0)
(10.693 0.488571 0)
(10.7089 0.483902 0)
(10.7236 0.478709 0)
(10.7371 0.473072 0)
(10.7493 0.467052 0)
(10.7602 0.460929 0)
(10.7685 0.453581 0)
(10.0003 0.0157907 0)
(10.0027 0.0473591 0)
(10.0076 0.0787183 0)
(10.0152 0.109635 0)
(10.0253 0.139899 0)
(10.0376 0.169326 0)
(10.052 0.19775 0)
(10.0683 0.225028 0)
(10.0865 0.251038 0)
(10.1062 0.275687 0)
(10.1273 0.298903 0)
(10.1496 0.320638 0)
(10.1728 0.340864 0)
(10.1968 0.359571 0)
(10.2215 0.376767 0)
(10.2465 0.392471 0)
(10.2719 0.406713 0)
(10.2974 0.419532 0)
(10.3229 0.430973 0)
(10.3483 0.441086 0)
(10.3735 0.449923 0)
(10.3984 0.457537 0)
(10.4228 0.463984 0)
(10.4468 0.469316 0)
(10.4703 0.473587 0)
(10.4931 0.476849 0)
(10.5152 0.479153 0)
(10.5367 0.480548 0)
(10.5573 0.481084 0)
(10.5771 0.480809 0)
(10.5961 0.479772 0)
(10.6141 0.478025 0)
(10.6311 0.47562 0)
(10.6472 0.472613 0)
(10.6621 0.469066 0)
(10.676 0.465046 0)
(10.6887 0.46063 0)
(10.7001 0.455885 0)
(10.7105 0.451037 0)
(10.7182 0.445244 0)
(10.0003 0.0145662 0)
(10.0025 0.0436877 0)
(10.007 0.072633 0)
(10.014 0.101205 0)
(10.0232 0.129227 0)
(10.0345 0.156538 0)
(10.0478 0.182997 0)
(10.0629 0.208477 0)
(10.0797 0.232869 0)
(10.098 0.256086 0)
(10.1175 0.278059 0)
(10.1382 0.298739 0)
(10.1598 0.318093 0)
(10.1822 0.336105 0)
(10.2052 0.352772 0)
(10.2287 0.368104 0)
(10.2525 0.38212 0)
(10.2764 0.394848 0)
(10.3004 0.40632 0)
(10.3243 0.416576 0)
(10.348 0.425657 0)
(10.3714 0.433606 0)
(10.3945 0.44047 0)
(10.4172 0.446294 0)
(10.4393 0.451125 0)
(10.4609 0.455009 0)
(10.4818 0.457991 0)
(10.5021 0.460119 0)
(10.5216 0.461436 0)
(10.5403 0.461992 0)
(10.5582 0.461832 0)
(10.5752 0.461007 0)
(10.5913 0.459569 0)
(10.6065 0.457574 0)
(10.6206 0.455082 0)
(10.6337 0.45216 0)
(10.6457 0.44888 0)
(10.6565 0.445311 0)
(10.6664 0.441635 0)
(10.6736 0.437249 0)
(10.0002 0.013437 0)
(10.0023 0.0403019 0)
(10.0065 0.0670198 0)
(10.013 0.0934259 0)
(10.0215 0.11937 0)
(10.032 0.144718 0)
(10.0443 0.169346 0)
(10.0584 0.193143 0)
(10.074 0.216012 0)
(10.0909 0.237873 0)
(10.1092 0.258661 0)
(10.1285 0.278327 0)
(10.1487 0.296834 0)
(10.1697 0.314162 0)
(10.1913 0.3303 0)
(10.2133 0.34525 0)
(10.2356 0.359022 0)
(10.2582 0.371633 0)
(10.2808 0.383106 0)
(10.3033 0.393471 0)
(10.3257 0.402759 0)
(10.3479 0.411006 0)
(10.3697 0.418249 0)
(10.3911 0.424527 0)
(10.4121 0.429879 0)
(10.4325 0.434346 0)
(10.4523 0.437968 0)
(10.4715 0.440788 0)
(10.49 0.442848 0)
(10.5077 0.444192 0)
(10.5247 0.444865 0)
(10.5408 0.444915 0)
(10.556 0.444393 0)
(10.5704 0.443353 0)
(10.5838 0.441854 0)
(10.5962 0.439958 0)
(10.6076 0.437737 0)
(10.6179 0.435257 0)
(10.6273 0.432663 0)
(10.6341 0.42956 0)
(10.0002 0.0123875 0)
(10.0021 0.037155 0)
(10.0061 0.0618017 0)
(10.0121 0.0861918 0)
(10.0201 0.110201 0)
(10.0299 0.133714 0)
(10.0414 0.156628 0)
(10.0545 0.178845 0)
(10.0691 0.200278 0)
(10.085 0.220856 0)
(10.1021 0.240515 0)
(10.1203 0.259208 0)
(10.1393 0.276898 0)
(10.159 0.293558 0)
(10.1793 0.309174 0)
(10.2001 0.323739 0)
(10.2211 0.337256 0)
(10.2424 0.349733 0)
(10.2638 0.361186 0)
(10.2851 0.371634 0)
(10.3063 0.381102 0)
(10.3273 0.389616 0)
(10.348 0.397206 0)
(10.3683 0.403904 0)
(10.3882 0.409743 0)
(10.4076 0.414757 0)
(10.4264 0.418984 0)
(10.4446 0.42246 0)
(10.4621 0.425223 0)
(10.479 0.427315 0)
(10.4951 0.428778 0)
(10.5103 0.429658 0)
(10.5248 0.430003 0)
(10.5384 0.429864 0)
(10.5511 0.429297 0)
(10.5629 0.428363 0)
(10.5738 0.427128 0)
(10.5836 0.425658 0)
(10.5927 0.424065 0)
(10.5991 0.422139 0)
(10.0002 0.0114036 0)
(10.002 0.0342048 0)
(10.0057 0.0569097 0)
(10.0114 0.0794091 0)
(10.0189 0.101601 0)
(10.0281 0.123393 0)
(10.039 0.144693 0)
(10.0514 0.16542 0)
(10.0651 0.185497 0)
(10.0801 0.204857 0)
(10.0962 0.223443 0)
(10.1134 0.241207 0)
(10.1313 0.25811 0)
(10.1499 0.274125 0)
(10.1692 0.28923 0)
(10.1888 0.303415 0)
(10.2088 0.316673 0)
(10.2289 0.329008 0)
(10.2492 0.340426 0)
(10.2694 0.35094 0)
(10.2895 0.360565 0)
(10.3095 0.369322 0)
(10.3291 0.377233 0)
(10.3485 0.384323 0)
(10.3674 0.39062 0)
(10.3858 0.396152 0)
(10.4037 0.40095 0)
(10.421 0.405048 0)
(10.4377 0.408479 0)
(10.4537 0.411282 0)
(10.4689 0.413495 0)
(10.4835 0.41516 0)
(10.4973 0.416323 0)
(10.5102 0.417033 0)
(10.5223 0.417343 0)
(10.5336 0.417309 0)
(10.544 0.416994 0)
(10.5534 0.416462 0)
(10.5621 0.415796 0)
(10.5681 0.414953 0)
(10.0002 0.0104723 0)
(10.0019 0.0314127 0)
(10.0054 0.0522803 0)
(10.0108 0.0729913 0)
(10.018 0.0934661 0)
(10.0268 0.113629 0)
(10.0371 0.133404 0)
(10.0488 0.152721 0)
(10.0619 0.171513 0)
(10.0761 0.189718 0)
(10.0914 0.207282 0)
(10.1077 0.22416 0)
(10.1247 0.240311 0)
(10.1424 0.255705 0)
(10.1607 0.270318 0)
(10.1794 0.284131 0)
(10.1984 0.297135 0)
(10.2175 0.309326 0)
(10.2368 0.320702 0)
(10.2561 0.33127 0)
(10.2752 0.341039 0)
(10.2942 0.350022 0)
(10.3129 0.358234 0)
(10.3313 0.365694 0)
(10.3493 0.372424 0)
(10.3669 0.378447 0)
(10.3839 0.383789 0)
(10.4004 0.388478 0)
(10.4163 0.392545 0)
(10.4315 0.396023 0)
(10.4461 0.398947 0)
(10.4599 0.401357 0)
(10.4731 0.403294 0)
(10.4854 0.404803 0)
(10.497 0.405936 0)
(10.5077 0.406744 0)
(10.5177 0.407286 0)
(10.5267 0.407625 0)
(10.5351 0.407819 0)
(10.5408 0.407975 0)
(10.0002 0.00958142 0)
(10.0018 0.0287417 0)
(10.0052 0.0478527 0)
(10.0104 0.0668563 0)
(10.0173 0.0856939 0)
(10.0257 0.104306 0)
(10.0356 0.122631 0)
(10.0469 0.140609 0)
(10.0594 0.158179 0)
(10.073 0.175287 0)
(10.0877 0.191882 0)
(10.1032 0.207917 0)
(10.1195 0.223353 0)
(10.1364 0.238155 0)
(10.1539 0.252297 0)
(10.1717 0.265755 0)
(10.1898 0.278515 0)
(10.2081 0.290566 0)
(10.2265 0.301901 0)
(10.2449 0.31252 0)
(10.2632 0.322425 0)
(10.2813 0.331622 0)
(10.2992 0.340121 0)
(10.3168 0.347934 0)
(10.3339 0.355078 0)
(10.3507 0.361571 0)
(10.3669 0.367432 0)
(10.3826 0.372687 0)
(10.3978 0.37736 0)
(10.4123 0.381481 0)
(10.4262 0.385081 0)
(10.4394 0.388196 0)
(10.4519 0.390864 0)
(10.4637 0.393127 0)
(10.4748 0.395031 0)
(10.4851 0.396627 0)
(10.4946 0.397967 0)
(10.5033 0.399115 0)
(10.5115 0.400104 0)
(10.5169 0.401179 0)
(10.0002 0.00871841 0)
(10.0018 0.0261544 0)
(10.0051 0.0435667 0)
(10.0102 0.0609234 0)
(10.0168 0.0781866 0)
(10.025 0.0953121 0)
(10.0346 0.112251 0)
(10.0455 0.128951 0)
(10.0576 0.14536 0)
(10.0708 0.161427 0)
(10.0849 0.177101 0)
(10.0998 0.192338 0)
(10.1155 0.207097 0)
(10.1318 0.221341 0)
(10.1485 0.235039 0)
(10.1656 0.248165 0)
(10.183 0.260697 0)
(10.2006 0.272619 0)
(10.2182 0.28392 0)
(10.2358 0.294592 0)
(10.2533 0.304631 0)
(10.2707 0.314037 0)
(10.2878 0.322815 0)
(10.3046 0.330971 0)
(10.321 0.338515 0)
(10.337 0.34546 0)
(10.3525 0.351822 0)
(10.3675 0.357618 0)
(10.3819 0.362872 0)
(10.3958 0.367607 0)
(10.4091 0.371851 0)
(10.4217 0.375635 0)
(10.4336 0.378994 0)
(10.4449 0.381967 0)
(10.4555 0.384595 0)
(10.4653 0.386925 0)
(10.4745 0.389008 0)
(10.4829 0.390904 0)
(10.4908 0.392628 0)
(10.496 0.394547 0)
(10.0002 0.00786995 0)
(10.0018 0.0236111 0)
(10.0051 0.0393583 0)
(10.0101 0.0551083 0)
(10.0167 0.0708438 0)
(10.0247 0.0865346 0)
(10.0341 0.102142 0)
(10.0448 0.117621 0)
(10.0566 0.132924 0)
(10.0694 0.148003 0)
(10.0831 0.162808 0)
(10.0976 0.177294 0)
(10.1128 0.191419 0)
(10.1285 0.205142 0)
(10.1447 0.218429 0)
(10.1612 0.231249 0)
(10.1779 0.243576 0)
(10.1948 0.255387 0)
(10.2118 0.266667 0)
(10.2287 0.2774 0)
(10.2455 0.287579 0)
(10.2621 0.297196 0)
(10.2785 0.30625 0)
(10.2946 0.314742 0)
(10.3103 0.322677 0)
(10.3256 0.330062 0)
(10.3404 0.336907 0)
(10.3547 0.343227 0)
(10.3686 0.349039 0)
(10.3818 0.354362 0)
(10.3945 0.35922 0)
(10.4065 0.36364 0)
(10.4179 0.367653 0)
(10.4287 0.371294 0)
(10.4388 0.3746 0)
(10.4483 0.377616 0)
(10.4571 0.380386 0)
(10.4651 0.382972 0)
(10.4728 0.385371 0)
(10.4778 0.388058 0)
(10.0002 0.00702099 0)
(10.0018 0.0210665 0)
(10.0051 0.0351555 0)
(10.0101 0.0493183 0)
(10.0168 0.0635574 0)
(10.0248 0.0778545 0)
(10.0341 0.0921782 0)
(10.0447 0.106489 0)
(10.0563 0.120741 0)
(10.0689 0.134886 0)
(10.0823 0.148876 0)
(10.0965 0.162662 0)
(10.1112 0.176199 0)
(10.1265 0.189444 0)
(10.1422 0.202358 0)
(10.1582 0.214905 0)
(10.1744 0.227055 0)
(10.1907 0.23878 0)
(10.207 0.250057 0)
(10.2233 0.260867 0)
(10.2395 0.271194 0)
(10.2555 0.281029 0)
(10.2712 0.290361 0)
(10.2866 0.299188 0)
(10.3016 0.307508 0)
(10.3163 0.315324 0)
(10.3305 0.322641 0)
(10.3442 0.329469 0)
(10.3574 0.335818 0)
(10.37 0.341706 0)
(10.3821 0.347152 0)
(10.3936 0.352177 0)
(10.4045 0.356809 0)
(10.4148 0.361079 0)
(10.4245 0.36502 0)
(10.4336 0.368673 0)
(10.4421 0.372079 0)
(10.4499 0.375297 0)