/*--------------------------------*- C++ -*----------------------------------*\
| =========                 |                                                 |
| \\      /  F ield         | OpenFOAM: The Open Source CFD Toolbox           |
|  \\    /   O peration     | Version:  v1906                                 |
|   \\  /    A nd           | Web:      www.OpenFOAM.com                      |
|    \\/     M anipulation  |                                                 |
\*---------------------------------------------------------------------------*/
FoamFile
{
    version     2.0;
    format      ascii;
    class       surfaceScalarField;
    location    "0.5";
    object      phi;
}
// * * * * * * * * * * * * * * * * * * * * * * * * * * * * * * * * * * * * * //

dimensions      [0 3 -1 0 0 0 0];
oriented        oriented;


internalField   nonuniform List<scalar> 
760
(
0.000438211
6.17889e-05
0.000359163
7.90477e-05
0.000292407
6.67565e-05
0.000239278
5.31291e-05
0.000199334
3.99441e-05
0.000170458
2.88754e-05
0.000149804
2.06542e-05
0.000134839
1.49653e-05
0.000123684
1.11551e-05
0.000115062
8.6217e-06
0.000108153
6.90903e-06
0.000102445
5.70801e-06
9.76192e-05
4.82565e-06
9.34685e-05
4.1507e-06
8.98525e-05
3.616e-06
8.66585e-05
3.19401e-06
8.3801e-05
2.85754e-06
8.11437e-05
2.65732e-06
7.86176e-05
2.52604e-06
3.00946e-06
0.000524274
3.75152e-05
0.000528066
7.52558e-05
0.000511928
8.28938e-05
0.000486056
7.90014e-05
0.000455316
7.06845e-05
0.000423662
6.05287e-05
0.00039381
5.05068e-05
0.000367033
4.17421e-05
0.000343657
3.45313e-05
0.000323513
2.87654e-05
0.000306216
2.42065e-05
0.000291321
2.06027e-05
0.000278417
1.77299e-05
0.000267152
1.54157e-05
0.000257244
1.35235e-05
0.000248459
1.19791e-05
0.000240618
1.06989e-05
0.00023353
9.74533e-06
0.000227064
8.99148e-06
8.79393e-06
0.000517013
2.05019e-05
0.000539014
5.32548e-05
0.00055188
7.00279e-05
0.000555305
7.55764e-05
0.000550763
7.52266e-05
0.000540031
7.12611e-05
0.000525208
6.5329e-05
0.000508182
5.87683e-05
0.000490343
5.23703e-05
0.000472623
4.64859e-05
0.000455596
4.12327e-05
0.000439579
3.66204e-05
0.000424706
3.2603e-05
0.000411003
2.91184e-05
0.000398433
2.60935e-05
0.000386937
2.34749e-05
0.000376422
2.12142e-05
0.0003669
1.92676e-05
0.000358131
1.77597e-05
1.60884e-05
0.000507959
1.25432e-05
0.000524957
3.62563e-05
0.000542178
5.28072e-05
0.000555757
6.19976e-05
0.000564699
6.62847e-05
0.000568791
6.71687e-05
0.000568461
6.56592e-05
0.000564552
6.26768e-05
0.000557981
5.89421e-05
0.000549553
5.49133e-05
0.00053993
5.0856e-05
0.000529628
4.69225e-05
0.000519033
4.3198e-05
0.000508433
3.97179e-05
0.000498019
3.65082e-05
0.000487965
3.35286e-05
0.00047831
3.08688e-05
0.00046933
2.82482e-05
0.000460766
2.63238e-05
2.3294e-05
0.000503902
8.64138e-06
0.000514552
2.56066e-05
0.000528006
3.93523e-05
0.000541271
4.87329e-05
0.000552973
5.45831e-05
0.000562355
5.77867e-05
0.000569059
5.89554e-05
0.000573109
5.8626e-05
0.000574769
5.72825e-05
0.000574387
5.52951e-05
0.000572323
5.29197e-05
0.00056892
5.03255e-05
0.00056448
4.76385e-05
0.000559279
4.4919e-05
0.000553526
4.22614e-05
0.000547462
3.95919e-05
0.000541174
3.71568e-05
0.000535006
3.44163e-05
0.000528798
3.25321e-05
2.88353e-05
0.000502257
6.38426e-06
0.000508886
1.89776e-05
0.000518239
2.99996e-05
0.000528562
3.84099e-05
0.000538802
4.43432e-05
0.000548306
4.82823e-05
0.000556628
5.06334e-05
0.000563524
5.173e-05
0.000568928
5.18785e-05
0.000572886
5.13368e-05
0.000575501
5.03049e-05
0.000576907
4.89192e-05
0.000577246
4.72994e-05
0.000576676
4.5489e-05
0.000575326
4.3612e-05
0.000573368
4.15497e-05
0.000570882
3.96428e-05
0.000568091
3.72068e-05
0.000564992
3.56313e-05
3.19957e-05
0.000501465
4.91892e-06
0.000505804
1.46393e-05
0.000512299
2.35042e-05
0.00051996
3.07493e-05
0.000528048
3.62547e-05
0.000536084
4.02459e-05
0.000543726
4.29918e-05
0.000550735
4.47212e-05
0.000556972
4.56408e-05
0.000562378
4.59312e-05
0.000566938
4.57446e-05
0.000570673
4.51847e-05
0.000573618
4.43543e-05
0.00057583
4.32771e-05
0.000577364
4.20778e-05
0.000578294
4.06199e-05
0.000578683
3.92534e-05
0.000578587
3.73035e-05
0.000578126
3.60921e-05
3.29699e-05
0.000501014
3.9045e-06
0.000504021
1.16326e-05
0.00050868
1.88457e-05
0.000514412
2.50167e-05
0.000520705
2.99619e-05
0.000527196
3.37547e-05
0.000533631
3.65569e-05
0.000539826
3.85264e-05
0.000545657
3.981e-05
0.000551049
4.05393e-05
0.00055596
4.08329e-05
0.000560372
4.07728e-05
0.00056428
4.04464e-05
0.000567688
3.98694e-05
0.000570614
3.9152e-05
0.000573061
3.81722e-05
0.000575084
3.72312e-05
0.000576618
3.57687e-05
0.000577842
3.48682e-05
3.24129e-05
0.000500738
3.167e-06
0.000502928
9.44222e-06
0.00050639
1.53836e-05
0.000510776
2.06307e-05
0.000515729
2.50085e-05
0.000520972
2.85125e-05
0.000526301
3.12272e-05
0.000531572
3.32555e-05
0.000536681
3.47011e-05
0.00054156
3.56607e-05
0.000546166
3.62266e-05
0.000550473
3.64659e-05
0.000554467
3.64524e-05
0.000558134
3.62025e-05
0.00056148
3.5806e-05
0.000564478
3.51743e-05
0.000567171
3.45382e-05
0.000569453
3.34869e-05
0.000571496
3.2825e-05
3.10034e-05
0.000500559
2.60807e-06
0.000502221
7.78047e-06
0.000504879
1.27257e-05
0.000508316
1.71935e-05
0.000512286
2.10381e-05
0.000516576
2.42226e-05
0.000521021
2.6782e-05
0.000525498
2.87784e-05
0.000529917
3.02823e-05
0.000534215
3.13632e-05
0.00053835
3.20914e-05
0.000542295
3.25214e-05
0.000546033
3.27138e-05
0.000549548
3.2688e-05
0.000552839
3.25142e-05
0.000555876
3.21381e-05
0.000558689
3.17248e-05
0.000561175
3.10004e-05
0.000563477
3.05237e-05
2.92319e-05
0.000500438
2.16976e-06
0.000501742
6.47677e-06
0.000503843
1.06243e-05
0.000506602
1.4435e-05
0.000509846
1.77939e-05
0.000513414
2.0655e-05
0.00051717
2.30254e-05
0.00052101
2.49387e-05
0.000524852
2.64406e-05
0.000528635
2.75795e-05
0.00053232
2.84072e-05
0.000535874
2.8967e-05
0.000539281
2.93067e-05
0.000542521
2.94478e-05
0.000545592
2.94432e-05
0.000548464
2.92664e-05
0.000551159
2.90299e-05
0.000553593
2.85665e-05
0.000555873
2.82437e-05
2.73758e-05
0.000500354
1.81574e-06
0.000501408
5.42318e-06
0.000503115
8.91663e-06
0.000505382
1.21687e-05
0.000508085
1.50908e-05
0.000511101
1.76385e-05
0.000514322
1.98046e-05
0.000517656
2.16045e-05
0.000521031
2.30657e-05
0.00052439
2.4221e-05
0.000527689
2.51073e-05
0.000530899
2.57578e-05
0.000533996
2.62092e-05
0.000536961
2.64826e-05
0.000539787
2.6617e-05
0.000542449
2.66051e-05
0.000544959
2.65201e-05
0.000547253
2.6272e-05
0.000549411
2.60852e-05
2.55584e-05
0.000500294
1.52169e-06
0.00050117
4.5475e-06
0.000502595
7.49165e-06
0.000504501
1.02623e-05
0.000506799
1.27926e-05
0.000509395
1.50433e-05
0.000512198
1.7001e-05
0.000515132
1.86701e-05
0.000518132
2.00657e-05
0.000521145
2.12087e-05
0.000524128
2.21244e-05
0.000527048
2.28375e-05
0.000529882
2.33752e-05
0.000532608
2.37567e-05
0.000535215
2.40097e-05
0.000537681
2.41393e-05
0.000540012
2.41894e-05
0.000542159
2.4125e-05
0.000544182
2.4062e-05
2.38173e-05
0.000500251
1.27045e-06
0.000501
3.79886e-06
0.000502221
6.27015e-06
0.000503865
8.61922e-06
0.000505861
1.07961e-05
0.000508136
1.27683e-05
0.000510616
1.45205e-05
0.000513236
1.60504e-05
0.000515937
1.73647e-05
0.00051867
1.84757e-05
0.000521395
1.93998e-05
0.000524078
2.01546e-05
0.000526694
2.07591e-05
0.000529221
2.12298e-05
0.000531645
2.15855e-05
0.000533946
2.18385e-05
0.000536125
2.20106e-05
0.000538143
2.21064e-05
0.000540048
2.21567e-05
2.21523e-05
0.000500221
1.04929e-06
0.000500881
3.13933e-06
0.000501958
5.19269e-06
0.000503412
7.16536e-06
0.000505187
9.0209e-06
0.000507223
1.07328e-05
0.000509457
1.22859e-05
0.000511834
1.36742e-05
0.000514299
1.48988e-05
0.00051681
1.59654e-05
0.000519326
1.68835e-05
0.000521816
1.76645e-05
0.000524254
1.8321e-05
0.000526618
1.88662e-05
0.000528892
1.93114e-05
0.000531057
1.96732e-05
0.000533113
1.99553e-05
0.000535026
2.01928e-05
0.000536836
2.03466e-05
2.05512e-05
0.000500201
8.48101e-07
0.000500802
2.53844e-06
0.000501783
4.21158e-06
0.000503107
5.8413e-06
0.000504727
7.40118e-06
0.00050659
8.86967e-06
0.000508644
1.02324e-05
0.000510837
1.14813e-05
0.000513122
1.26131e-05
0.000515459
1.36288e-05
0.00051781
1.4532e-05
0.000520145
1.53293e-05
0.000522439
1.60273e-05
0.000524669
1.6636e-05
0.000526821
1.71602e-05
0.000528875
1.76188e-05
0.00053083
1.80005e-05
0.000532658
1.83642e-05
0.000534393
1.8612e-05
1.90015e-05
0.000500192
6.56359e-07
0.000500762
1.96842e-06
0.000501688
3.28519e-06
0.000502933
4.59632e-06
0.000504453
5.88127e-06
0.000506201
7.12202e-06
0.000508128
8.30488e-06
0.00051019
9.41999e-06
0.000512342
1.04608e-05
0.000514546
1.14241e-05
0.00051677
1.23089e-05
0.000518982
1.3117e-05
0.000521159
1.38501e-05
0.00052328
1.45149e-05
0.00052533
1.51103e-05
0.000527292
1.56566e-05
0.000529163
1.61293e-05
0.000530921
1.66069e-05
0.000532594
1.69385e-05
1.7493e-05
0.0005002
4.56188e-07
0.000500771
1.39717e-06
0.000501683
2.37362e-06
0.000502894
3.38568e-06
0.000504361
4.41418e-06
0.00050604
5.44314e-06
0.000507886
6.45877e-06
0.000509857
7.44919e-06
0.000511913
8.4048e-06
0.000514018
9.31857e-06
0.000516142
1.01853e-05
0.000518256
1.10027e-05
0.000520338
1.1768e-05
0.000522368
1.24845e-05
0.000524333
1.31456e-05
0.000526218
1.37722e-05
0.000528018
1.4329e-05
0.000529713
1.49116e-05
0.00053133
1.53221e-05
1.6011e-05
0.000500237
2.19365e-07
0.000500849
7.85273e-07
0.000501782
1.44075e-06
0.000502994
2.1731e-06
0.000504444
2.96451e-06
0.000506087
3.79953e-06
0.000507884
4.66274e-06
0.000509793
5.53988e-06
0.000511779
6.41847e-06
0.00051381
7.28813e-06
0.000515855
8.13989e-06
0.00051789
8.96744e-06
0.000519894
9.76401e-06
0.000521849
1.05293e-05
0.000523743
1.12525e-05
0.000525562
1.19525e-05
0.000527305
1.25864e-05
0.000528954
1.32621e-05
0.000530519
1.37572e-05
1.45396e-05
0.000500259
0.00050095
0.000501918
0.000503151
0.000504602
0.000506231
0.000508001
0.000509875
0.000511818
0.000513801
0.000515795
0.000517778
0.00051973
0.000521635
0.00052348
0.000525255
0.000526962
0.000528596
0.000530195
)
;

boundaryField
{
    movingWall
    {
        type            calculated;
        value           nonuniform List<scalar> 
20
(
-3.95289e-08
9.45698e-08
4.72181e-07
9.40581e-07
1.51363e-06
2.17008e-06
2.89289e-06
3.66622e-06
4.47499e-06
5.30553e-06
6.14527e-06
6.98433e-06
7.81206e-06
8.62499e-06
9.40759e-06
1.01768e-05
1.08799e-05
1.16279e-05
1.2158e-05
1.3233e-05
)
;
    }
    bottomWall
    {
        type            calculated;
        value           uniform 0;
    }
    leftSide
    {
        type            calculated;
        value           nonuniform List<scalar> 
20
(
-0.0005
-0.0005
-0.0005
-0.0005
-0.0005
-0.0005
-0.0005
-0.0005
-0.0005
-0.0005
-0.0005
-0.0005
-0.0005
-0.0005
-0.0005
-0.0005
-0.0005
-0.0005
-0.0005
-0.0005
)
;
    }
    rightSide
    {
        type            calculated;
        value           nonuniform List<scalar> 
20
(
7.56082e-05
0.00022128
0.000350837
0.00045356
0.000523257
0.000561832
0.000577152
0.000578399
0.000572905
0.000565248
0.000557729
0.000551229
0.000545923
0.000541713
0.000538437
0.000535943
0.000534103
0.000532812
0.000531991
0.000531502
)
;
    }
    frontAndBack
    {
        type            empty;
        value           nonuniform 0();
    }
}


// ************************************************************************* //
