/*--------------------------------*- C++ -*----------------------------------*\
| =========                 |                                                 |
| \\      /  F ield         | OpenFOAM: The Open Source CFD Toolbox           |
|  \\    /   O peration     | Version:  v1906                                 |
|   \\  /    A nd           | Web:      www.OpenFOAM.com                      |
|    \\/     M anipulation  |                                                 |
\*---------------------------------------------------------------------------*/
FoamFile
{
    version     2.0;
    format      ascii;
    class       volVectorField;
    location    "0.5";
    object      U;
}
// * * * * * * * * * * * * * * * * * * * * * * * * * * * * * * * * * * * * * //

dimensions      [0 1 -1 0 0 0 0];


internalField   nonuniform List<vector> 
400
(
(8.6662 0.593432 0)
(7.79132 0.90354 0)
(6.57326 0.803428 0)
(5.31098 0.604678 0)
(4.34052 0.414293 0)
(3.66128 0.266207 0)
(3.17993 0.166638 0)
(2.83124 0.105899 0)
(2.57421 0.0706126 0)
(2.37937 0.0503596 0)
(2.2262 0.038491 0)
(2.1015 0.0311294 0)
(1.99718 0.0261601 0)
(1.90812 0.0225324 0)
(1.83101 0.0197243 0)
(1.76327 0.0176158 0)
(1.70337 0.016112 0)
(1.64841 0.0158926 0)
(1.59734 0.0166652 0)
(1.52792 0.0236581 0)
(10.0413 0.975996 0)
(10.488 1.68488 0)
(10.4902 1.73131 0)
(10.0581 1.54119 0)
(9.44042 1.27532 0)
(8.79137 1.00325 0)
(8.16854 0.76658 0)
(7.59819 0.581572 0)
(7.09429 0.445687 0)
(6.65887 0.34872 0)
(6.28569 0.279837 0)
(5.96542 0.230235 0)
(5.68906 0.193554 0)
(5.44867 0.165636 0)
(5.23825 0.143724 0)
(5.05187 0.12648 0)
(4.88746 0.112623 0)
(4.73612 0.103491 0)
(4.61089 0.0966487 0)
(4.43933 0.103729 0)
(10.0554 0.601915 0)
(10.523 1.32487 0)
(10.9341 1.59939 0)
(11.1229 1.63835 0)
(11.1025 1.5592 0)
(10.9356 1.41598 0)
(10.6709 1.24678 0)
(10.3452 1.07866 0)
(9.99013 0.925897 0)
(9.62968 0.793521 0)
(9.27927 0.681716 0)
(8.94724 0.588567 0)
(8.63778 0.511318 0)
(8.35165 0.447287 0)
(8.08962 0.393865 0)
(7.84798 0.349443 0)
(7.63153 0.312036 0)
(7.42271 0.282188 0)
(7.26397 0.258237 0)
(7.02332 0.241306 0)
(10.0219 0.333146 0)
(10.2905 0.871577 0)
(10.656 1.2028 0)
(10.992 1.37238 0)
(11.2296 1.43517 0)
(11.3599 1.42324 0)
(11.3943 1.36131 0)
(11.348 1.27148 0)
(11.2388 1.17011 0)
(11.0846 1.06724 0)
(10.9007 0.968363 0)
(10.6988 0.876316 0)
(10.4882 0.792259 0)
(10.2743 0.71643 0)
(10.0644 0.648513 0)
(9.85642 0.587807 0)
(9.66512 0.534416 0)
(9.46342 0.485512 0)
(9.32199 0.44822 0)
(9.07042 0.399157 0)
(10.0109 0.211464 0)
(10.1576 0.59714 0)
(10.4019 0.890901 0)
(10.6861 1.0848 0)
(10.9502 1.19913 0)
(11.1667 1.25274 0)
(11.3284 1.26043 0)
(11.4354 1.23592 0)
(11.4911 1.19093 0)
(11.502 1.13403 0)
(11.4757 1.07094 0)
(11.419 1.00539 0)
(11.3394 0.93992 0)
(11.2408 0.875882 0)
(11.1319 0.814755 0)
(11.009 0.755627 0)
(10.8926 0.702079 0)
(10.75 0.645742 0)
(10.661 0.605763 0)
(10.4573 0.534708 0)
(10.007 0.150584 0)
(10.095 0.436445 0)
(10.2519 0.676376 0)
(10.4566 0.854179 0)
(10.6724 0.975509 0)
(10.8756 1.05176 0)
(11.0561 1.09245 0)
(11.2092 1.10573 0)
(11.3325 1.09889 0)
(11.4258 1.07784 0)
(11.491 1.04704 0)
(11.5302 1.00957 0)
(11.5473 0.967992 0)
(11.5432 0.923455 0)
(11.5251 0.878341 0)
(11.4876 0.830697 0)
(11.4499 0.786854 0)
(11.3813 0.733935 0)
(11.35 0.698979 0)
(11.2229 0.622568 0)
(10.0049 0.113601 0)
(10.0625 0.332409 0)
(10.1673 0.52573 0)
(10.3121 0.679901 0)
(10.4757 0.794287 0)
(10.6414 0.87495 0)
(10.8004 0.928183 0)
(10.948 0.959286 0)
(11.0812 0.973013 0)
(11.198 0.973437 0)
(11.2978 0.963909 0)
(11.3804 0.946745 0)
(11.4473 0.924164 0)
(11.4978 0.896798 0)
(11.5364 0.867244 0)
(11.5578 0.832799 0)
(11.576 0.800744 0)
(11.568 0.756892 0)
(11.5799 0.729427 0)
(11.5249 0.660335 0)
(10.0035 0.0886905 0)
(10.0437 0.260857 0)
(10.1173 0.417867 0)
(10.2224 0.549761 0)
(10.3463 0.653538 0)
(10.4774 0.731655 0)
(10.6085 0.788019 0)
(10.7358 0.826287 0)
(10.8567 0.849827 0)
(10.9694 0.861609 0)
(11.0728 0.864247 0)
(11.1659 0.859535 0)
(11.2494 0.849356 0)
(11.322 0.834051 0)
(11.3862 0.816009 0)
(11.438 0.79253 0)
(11.4857 0.770289 0)
(11.5151 0.736647 0)
(11.5515 0.716037 0)
(11.5471 0.660011 0)
(10.0026 0.0710244 0)
(10.032 0.209668 0)
(10.0861 0.338746 0)
(10.1649 0.451224 0)
(10.2606 0.543683 0)
(10.3648 0.616562 0)
(10.472 0.672037 0)
(10.5789 0.712567 0)
(10.6833 0.740566 0)
(10.7836 0.758244 0)
(10.8787 0.767661 0)
(10.9679 0.770274 0)
(11.0512 0.767683 0)
(11.1275 0.760185 0)
(11.1982 0.749781 0)
(11.2607 0.73433 0)
(11.3191 0.719158 0)
(11.3659 0.694535 0)
(11.4123 0.679269 0)
(11.4356 0.636874 0)
(10.002 0.0579611 0)
(10.0244 0.171573 0)
(10.0657 0.278815 0)
(10.1266 0.374728 0)
(10.2021 0.456259 0)
(10.2864 0.522912 0)
(10.3749 0.575716 0)
(10.4648 0.616208 0)
(10.5543 0.64606 0)
(10.6418 0.666885 0)
(10.7265 0.680271 0)
(10.8074 0.687414 0)
(10.8844 0.689644 0)
(10.9568 0.68732 0)
(11.0252 0.682028 0)
(11.0881 0.672355 0)
(11.1472 0.662201 0)
(11.199 0.644829 0)
(11.2472 0.633635 0)
(11.2818 0.60303 0)
(10.0016 0.047927 0)
(10.0192 0.142162 0)
(10.0517 0.231986 0)
(10.1001 0.313866 0)
(10.1611 0.385318 0)
(10.2304 0.445504 0)
(10.3046 0.494761 0)
(10.3811 0.533968 0)
(10.4584 0.564225 0)
(10.535 0.586674 0)
(10.61 0.602504 0)
(10.6825 0.612672 0)
(10.7523 0.618251 0)
(10.8188 0.619655 0)
(10.8821 0.618096 0)
(10.9413 0.612802 0)
(10.9973 0.60648 0)
(11.0481 0.594854 0)
(11.0945 0.58695 0)
(11.1311 0.565823 0)
(10.0013 0.0399624 0)
(10.0155 0.11873 0)
(10.0419 0.194369 0)
(10.0814 0.264333 0)
(10.1318 0.326675 0)
(10.1898 0.380504 0)
(10.2529 0.425784 0)
(10.319 0.462952 0)
(10.3865 0.492697 0)
(10.4541 0.515798 0)
(10.521 0.533116 0)
(10.5862 0.5454 0)
(10.6495 0.553482 0)
(10.7102 0.55779 0)
(10.7682 0.559226 0)
(10.823 0.557486 0)
(10.8749 0.554371 0)
(10.9226 0.547422 0)
(10.9663 0.542376 0)
(11.0011 0.528792 0)
(10.0011 0.0334521 0)
(10.0129 0.099524 0)
(10.0349 0.163354 0)
(10.068 0.223098 0)
(10.1105 0.277256 0)
(10.1601 0.325013 0)
(10.2146 0.366149 0)
(10.2724 0.400832 0)
(10.3321 0.429458 0)
(10.3926 0.452541 0)
(10.4528 0.470681 0)
(10.512 0.484445 0)
(10.5697 0.494459 0)
(10.6254 0.501125 0)
(10.6788 0.505099 0)
(10.7295 0.50638 0)
(10.7777 0.506105 0)
(10.822 0.503098 0)
(10.8632 0.50064 0)
(10.8951 0.493197 0)
(10.0009 0.0279775 0)
(10.0111 0.0833387 0)
(10.0299 0.137107 0)
(10.0583 0.187954 0)
(10.0951 0.234747 0)
(10.1383 0.276786 0)
(10.1863 0.313782 0)
(10.2376 0.345741 0)
(10.2912 0.372861 0)
(10.3458 0.395459 0)
(10.4006 0.413937 0)
(10.4548 0.428705 0)
(10.508 0.440216 0)
(10.5595 0.448827 0)
(10.6092 0.454993 0)
(10.6564 0.4589 0)
(10.7014 0.461184 0)
(10.7428 0.46159 0)
(10.7818 0.461505 0)
(10.811 0.459224 0)
(10.0008 0.023238 0)
(10.0097 0.0693045 0)
(10.0263 0.114283 0)
(10.0514 0.157247 0)
(10.084 0.197358 0)
(10.1226 0.234042 0)
(10.1656 0.266996 0)
(10.212 0.296133 0)
(10.2607 0.321517 0)
(10.3107 0.34332 0)
(10.3612 0.361788 0)
(10.4114 0.377204 0)
(10.4609 0.389877 0)
(10.509 0.400102 0)
(10.5555 0.408173 0)
(10.5999 0.414386 0)
(10.6424 0.418981 0)
(10.6813 0.42239 0)
(10.7187 0.424472 0)
(10.7455 0.426653 0)
(10.0007 0.0190039 0)
(10.0089 0.0567643 0)
(10.024 0.0938707 0)
(10.0469 0.12972 0)
(10.0766 0.163709 0)
(10.1117 0.195379 0)
(10.1512 0.22444 0)
(10.1939 0.25075 0)
(10.239 0.274284 0)
(10.2854 0.295101 0)
(10.3325 0.313328 0)
(10.3795 0.329137 0)
(10.426 0.342716 0)
(10.4713 0.354297 0)
(10.5153 0.364032 0)
(10.5572 0.372285 0)
(10.5977 0.378966 0)
(10.6347 0.385041 0)
(10.6707 0.389086 0)
(10.6957 0.395169 0)
(10.0007 0.0150549 0)
(10.0084 0.0451325 0)
(10.0228 0.0750303 0)
(10.0443 0.10438 0)
(10.0722 0.132745 0)
(10.1052 0.159754 0)
(10.1422 0.185138 0)
(10.1824 0.208722 0)
(10.2247 0.23041 0)
(10.2685 0.250174 0)
(10.313 0.268042 0)
(10.3575 0.284092 0)
(10.4015 0.298408 0)
(10.4446 0.311153 0)
(10.4865 0.322362 0)
(10.5265 0.332433 0)
(10.5652 0.341002 0)
(10.6005 0.349458 0)
(10.6354 0.355281 0)
(10.6589 0.364737 0)
(10.0007 0.0110614 0)
(10.0086 0.0335625 0)
(10.0229 0.0565802 0)
(10.044 0.0798489 0)
(10.071 0.102998 0)
(10.1028 0.125701 0)
(10.1383 0.147691 0)
(10.1767 0.168754 0)
(10.2171 0.188731 0)
(10.2589 0.207519 0)
(10.3014 0.225053 0)
(10.3439 0.241327 0)
(10.386 0.25633 0)
(10.4272 0.270161 0)
(10.4674 0.282743 0)
(10.5057 0.294488 0)
(10.543 0.304799 0)
(10.5769 0.315432 0)
(10.6108 0.322917 0)
(10.633 0.335458 0)
(10.0008 0.00656715 0)
(10.0096 0.0207897 0)
(10.0247 0.036516 0)
(10.0461 0.0534573 0)
(10.073 0.071244 0)
(10.1042 0.0895542 0)
(10.1388 0.108096 0)
(10.1761 0.126604 0)
(10.2152 0.14485 0)
(10.2555 0.16265 0)
(10.2965 0.179854 0)
(10.3374 0.196367 0)
(10.378 0.212083 0)
(10.4176 0.227024 0)
(10.4563 0.241009 0)
(10.4932 0.254432 0)
(10.5293 0.266488 0)
(10.5621 0.279236 0)
(10.5951 0.288362 0)
(10.6164 0.304256 0)
(10.001 0.00224735 0)
(10.0109 0.00881372 0)
(10.027 0.0176416 0)
(10.049 0.0284676 0)
(10.0761 0.0409752 0)
(10.1072 0.0548611 0)
(10.1414 0.0698251 0)
(10.178 0.085575 0)
(10.2164 0.101837 0)
(10.2558 0.118367 0)
(10.2958 0.134943 0)
(10.3357 0.151392 0)
(10.3752 0.167528 0)
(10.4138 0.183302 0)
(10.4515 0.198434 0)
(10.4875 0.213278 0)
(10.5228 0.226846 0)
(10.5549 0.241373 0)
(10.5877 0.251861 0)
(10.6086 0.270165 0)
)
;

boundaryField
{
    movingWall
    {
        type            zeroGradient;
    }
    bottomWall
    {
        type            noSlip;
    }
    leftSide
    {
        type            fixedValue;
        value           uniform (10 0 0);
    }
    rightSide
    {
        type            zeroGradient;
    }
    frontAndBack
    {
        type            empty;
    }
}


// ************************************************************************* //
