/*--------------------------------*- C++ -*----------------------------------*\
| =========                 |                                                 |
| \\      /  F ield         | OpenFOAM: The Open Source CFD Toolbox           |
|  \\    /   O peration     | Version:  v1906                                 |
|   \\  /    A nd           | Web:      www.OpenFOAM.com                      |
|    \\/     M anipulation  |                                                 |
\*---------------------------------------------------------------------------*/
FoamFile
{
    version     2.0;
    format      ascii;
    class       volScalarField;
    location    "2000/baffle3DRegion";
    object      T;
}
// * * * * * * * * * * * * * * * * * * * * * * * * * * * * * * * * * * * * * //

dimensions      [0 0 0 1 0 0 0];


internalField   nonuniform List<scalar> 
800
(
375.475
382.043
388.34
394.365
400.117
405.598
410.807
415.744
420.409
424.802
428.923
432.772
436.35
439.656
442.69
445.452
447.942
450.16
452.107
453.782
455.185
456.316
457.176
457.764
458.08
458.124
457.897
457.397
456.627
455.584
454.27
452.683
450.825
448.696
446.294
443.621
440.676
437.46
433.971
430.211
426.179
421.875
417.299
412.451
407.332
401.94
396.277
390.342
384.135
377.656
375.489
382.041
388.32
394.329
400.065
405.531
410.725
415.647
420.299
424.678
428.787
432.624
436.191
439.485
442.509
445.262
447.743
449.953
451.892
453.56
454.957
456.083
456.937
457.521
457.834
457.876
457.647
457.146
456.375
455.333
454.021
452.437
450.582
448.457
446.061
443.394
440.457
437.248
433.77
430.02
426
421.709
417.148
412.316
407.214
401.842
396.199
390.286
384.102
377.649
375.094
381.591
387.819
393.778
399.468
404.888
410.039
414.92
419.531
423.873
427.946
431.748
435.28
438.543
441.535
444.257
446.709
448.891
450.803
452.444
453.815
454.916
455.746
456.306
456.595
456.614
456.362
455.839
455.046
453.982
452.648
451.043
449.167
447.02
444.603
441.915
438.956
435.727
432.226
428.455
424.413
420.1
415.516
410.661
405.536
400.14
394.473
388.535
382.326
375.846
371.694
378.249
384.532
390.542
396.281
401.747
406.941
411.864
416.514
420.893
424.999
428.833
432.396
435.686
438.704
441.451
443.925
446.127
448.057
449.716
451.102
452.216
453.058
453.628
453.926
453.952
453.705
453.187
452.397
451.334
449.999
448.392
446.513
444.361
441.937
439.241
436.273
433.032
429.519
425.734
421.676
417.346
412.743
407.868
402.721
397.3
391.608
385.642
379.404
372.893
368.399
374.993
381.314
387.362
393.138
398.64
403.87
408.826
413.51
417.921
422.059
425.924
429.517
432.836
435.883
438.657
441.159
443.387
445.343
447.026
448.436
449.574
450.439
451.031
451.35
451.397
451.17
450.672
449.9
448.855
447.538
445.948
444.085
441.95
439.541
436.86
433.906
430.679
427.18
423.407
419.362
415.044
410.453
405.589
400.452
395.042
389.359
383.403
377.174
370.672
366.058
372.671
379.012
385.079
390.874
396.396
401.646
406.622
411.326
415.757
419.916
423.802
427.415
430.756
433.824
436.619
439.141
441.391
443.369
445.073
446.505
447.665
448.551
449.165
449.507
449.576
449.372
448.896
448.147
447.126
445.832
444.265
442.426
440.315
437.931
435.274
432.345
429.143
425.669
421.922
417.903
413.611
409.047
404.21
399.101
393.719
388.065
382.138
375.939
369.468
364.457
371.082
377.435
383.515
389.322
394.857
400.12
405.109
409.827
414.272
418.444
422.344
425.971
429.326
432.409
435.219
437.756
440.021
442.014
443.734
445.182
446.357
447.259
447.89
448.248
448.333
448.146
447.687
446.955
445.951
444.674
443.125
441.304
439.21
436.844
434.206
431.295
428.112
424.656
420.928
416.928
412.656
408.111
403.294
398.204
392.842
387.208
381.302
375.123
368.672
363.385
370.019
376.38
382.468
388.284
393.828
399.099
404.097
408.824
413.278
417.459
421.368
425.005
428.369
431.461
434.281
436.828
439.103
441.106
442.836
444.294
445.48
446.393
447.035
447.403
447.5
447.324
446.876
446.156
445.164
443.899
442.362
440.553
438.472
436.118
433.492
430.595
427.424
423.982
420.268
416.281
412.022
407.491
402.688
397.613
392.266
386.646
380.755
374.591
368.155
362.778
369.411
375.772
381.86
387.677
393.22
398.492
403.491
408.218
412.672
416.855
420.765
424.402
427.768
430.861
433.682
436.231
438.508
440.513
442.245
443.706
444.894
445.81
446.454
446.826
446.926
446.754
446.31
445.594
444.606
443.346
441.814
440.01
437.934
435.586
432.966
430.074
426.91
423.474
419.767
415.788
411.536
407.013
402.218
397.151
391.813
386.202
380.32
374.166
367.74
362.559
369.177
375.524
381.598
387.4
392.93
398.187
403.173
407.886
412.327
416.496
420.393
424.018
427.371
430.452
433.261
435.798
438.064
440.057
441.778
443.228
444.406
445.312
445.946
446.308
446.399
446.218
445.765
445.041
444.045
442.777
441.238
439.427
437.344
434.99
432.365
429.468
426.299
422.859
419.148
415.165
410.911
406.385
401.588
396.519
391.18
385.568
379.686
373.532
367.107
362.629
369.209
375.518
381.554
387.318
392.811
398.031
402.979
407.656
412.061
416.194
420.055
423.644
426.962
430.008
432.782
435.285
437.517
439.476
441.165
442.581
443.727
444.601
445.204
445.535
445.595
445.384
444.902
444.148
443.124
441.828
440.261
438.424
436.315
433.936
431.285
428.364
425.172
421.709
417.976
413.972
409.697
405.152
400.336
395.249
389.893
384.266
378.368
372.2
365.762
362.807
369.316
375.554
381.52
387.213
392.635
397.785
402.664
407.27
411.605
415.668
419.459
422.979
426.227
429.204
431.909
434.343
436.505
438.396
440.016
441.364
442.441
443.247
443.782
444.045
444.038
443.759
443.21
442.389
441.298
439.936
438.303
436.399
434.224
431.779
429.064
426.078
422.821
419.294
415.496
411.428
407.09
402.482
397.604
392.455
387.037
381.348
375.39
369.162
362.664
362.982
369.391
375.526
381.39
386.98
392.299
397.344
402.118
406.619
410.848
414.805
418.49
421.902
425.043
427.912
430.509
432.834
434.887
436.669
438.179
439.417
440.384
441.079
441.502
441.654
441.535
441.144
440.481
439.548
438.343
436.866
435.119
433.1
430.81
428.249
425.416
422.313
418.938
415.292
411.376
407.188
402.729
397.999
392.998
387.726
382.184
376.37
370.286
363.93
357.304
363.943
370.167
376.122
381.806
387.22
392.364
397.237
401.841
406.174
410.238
414.031
417.554
420.806
423.788
426.5
428.942
431.113
433.014
434.644
436.004
437.093
437.912
438.46
438.737
438.743
438.479
437.944
437.138
436.061
434.713
433.094
431.204
429.043
426.61
423.906
420.932
417.685
414.167
410.378
406.317
401.985
397.381
392.505
387.358
381.939
376.247
370.284
364.049
357.542
350.762
363.112
369.135
374.898
380.398
385.637
390.612
395.324
399.773
403.957
407.876
411.531
414.919
418.042
420.898
423.488
425.811
427.866
429.654
431.174
432.426
433.409
434.124
434.57
434.747
434.655
434.293
433.662
432.76
431.589
430.148
428.437
426.455
424.202
421.68
418.886
415.822
412.486
408.88
405.003
400.855
396.435
391.745
386.783
381.55
376.046
370.27
364.223
357.905
351.316
344.455
350.966
357.418
363.586
369.47
375.072
380.39
385.426
390.18
394.652
398.843
402.752
406.381
409.728
412.795
415.582
418.089
420.316
422.263
423.93
425.318
426.427
427.257
427.807
428.079
428.072
427.786
427.221
426.378
425.257
423.856
422.178
420.221
417.985
415.472
412.679
409.609
406.26
402.633
398.727
394.543
390.081
385.34
380.32
375.022
369.445
363.59
357.455
351.042
344.349
337.378
)
;

boundaryField
{
    bottom
    {
        type            compressible::thermalBaffle;
        refValue        nonuniform List<scalar> 
16
(
306.495
306.689
306.869
306.98
307.087
307.165
307.274
307.382
307.571
307.744
308.075
308.331
308.913
309.327
310.621
309.509
)
;
        refGradient     uniform 0;
        valueFraction   nonuniform List<scalar> 
16
(
0.0495849
0.0495849
0.0495849
0.0527462
0.0560012
0.0584603
0.0603122
0.0616566
0.0625429
0.0628573
0.0628046
0.0622434
0.0617861
0.0594573
0.0598558
0.0812479
)
;
        value           nonuniform List<scalar> 
16
(
372.195
372.206
371.771
368.286
364.954
362.601
360.994
359.919
359.312
359.101
359.191
359.405
359.631
360.686
359.961
347.588
)
;
        Tnbr            T;
        qrNbr           none;
        qr              none;
        thermalInertia  false;
        thicknessLayers 0();
        kappaLayers     0();
        kappaMethod     solidThermo;
        kappa           none;
        alphaAni        none;
    }
    top
    {
        type            compressible::thermalBaffle;
        refValue        nonuniform List<scalar> 
16
(
309.58
309.847
310.235
310.62
310.997
311.434
311.906
312.46
313.083
313.789
314.475
314.337
312.294
309.013
306.445
304.374
)
;
        refGradient     uniform 0;
        valueFraction   nonuniform List<scalar> 
16
(
0.0495849
0.0495849
0.0514426
0.0544667
0.0567644
0.0581028
0.05922
0.0602192
0.0612699
0.0627958
0.0653993
0.0700199
0.0766149
0.0844522
0.0938141
0.109847
)
;
        value           nonuniform List<scalar> 
16
(
374.071
374.181
372.455
369.499
367.284
366.095
365.309
364.801
364.391
363.76
362.409
359.279
353.852
347.232
340.885
333.749
)
;
        Tnbr            T;
        qrNbr           none;
        qr              none;
        thermalInertia  false;
        thicknessLayers 0();
        kappaLayers     0();
        kappaMethod     solidThermo;
        kappa           none;
        alphaAni        none;
    }
    side
    {
        type            zeroGradient;
    }
}


// ************************************************************************* //
