/*--------------------------------*- C++ -*----------------------------------*\
| =========                 |                                                 |
| \\      /  F ield         | OpenFOAM: The Open Source CFD Toolbox           |
|  \\    /   O peration     | Version:  v1906                                 |
|   \\  /    A nd           | Web:      www.OpenFOAM.com                      |
|    \\/     M anipulation  |                                                 |
\*---------------------------------------------------------------------------*/
FoamFile
{
    version     2.0;
    format      ascii;
    class       volScalarField;
    location    "0.1";
    object      p;
}
// * * * * * * * * * * * * * * * * * * * * * * * * * * * * * * * * * * * * * //

dimensions      [0 2 -2 0 0 0 0];


internalField   nonuniform List<scalar> 
400
(
2.10986e-05
-24.0139
-40.7626
-50.2071
-56.1127
-60.0888
-62.7048
-64.4182
-65.6092
-66.516
-67.2631
-67.9124
-68.4955
-69.0299
-69.5263
-69.9922
-70.4311
-70.8491
-71.2411
-71.6072
-21.7834
-32.9917
-43.2304
-50.1866
-55.0001
-58.5721
-61.2092
-63.1261
-64.5521
-65.6659
-66.5777
-67.3521
-68.0287
-68.6341
-69.1852
-69.6958
-70.1714
-70.6274
-71.0459
-71.52
-35.144
-39.8458
-45.5119
-50.485
-54.4731
-57.6869
-60.2474
-62.2387
-63.7844
-65.0131
-66.0223
-66.8767
-67.6186
-68.2779
-68.8739
-69.425
-69.936
-70.4392
-70.8923
-71.4667
-42.4086
-44.5688
-47.8465
-51.4141
-54.6461
-57.4027
-59.7087
-61.6047
-63.1512
-64.4233
-65.4893
-66.4013
-67.196
-67.9022
-68.5386
-69.128
-69.6721
-70.2181
-70.7038
-71.3249
-47.0592
-48.225
-50.2513
-52.7766
-55.2838
-57.5399
-59.5119
-61.2145
-62.6717
-63.9178
-64.9912
-65.9269
-66.752
-67.4906
-68.1576
-68.7767
-69.3459
-69.916
-70.4174
-71.0214
-50.3895
-51.1102
-52.4288
-54.2084
-56.1128
-57.9263
-59.5828
-61.0732
-62.3996
-63.5723
-64.609
-65.5306
-66.355
-67.1007
-67.778
-68.4078
-68.9852
-69.5543
-70.0497
-70.5938
-52.8928
-53.3737
-54.2699
-55.5439
-56.9939
-58.4503
-59.8363
-61.1266
-62.3112
-63.3878
-64.3616
-65.2431
-66.0429
-66.7737
-67.4419
-68.0636
-68.6327
-69.1813
-69.656
-70.1276
-54.8341
-55.1718
-55.8084
-56.7461
-57.8644
-59.0385
-60.197
-61.3078
-62.3548
-63.3293
-64.229
-65.0571
-65.8185
-66.5208
-67.1671
-67.7683
-68.3185
-68.8379
-69.2868
-69.6949
-56.3797
-56.6279
-57.0994
-57.8101
-58.6863
-59.6392
-60.6093
-61.5644
-62.4858
-63.3616
-64.1852
-64.955
-65.6715
-66.3382
-66.9558
-67.5304
-68.0571
-68.5465
-68.9706
-69.3321
-57.636
-57.8254
-58.1872
-58.7408
-59.4396
-60.221
-61.0378
-61.861
-62.6719
-63.4571
-64.2077
-64.9191
-65.5889
-66.2173
-66.8033
-67.3495
-67.8516
-68.314
-68.7167
-69.0477
-58.6721
-58.8214
-59.1076
-59.5499
-60.118
-60.7672
-61.461
-62.1747
-62.8904
-63.595
-64.2784
-64.9343
-65.5583
-66.1486
-66.7028
-67.221
-67.6992
-68.1387
-68.5234
-68.8356
-59.535
-59.656
-59.8887
-60.251
-60.7224
-61.2701
-61.8662
-62.49
-63.1254
-63.7598
-64.3831
-64.9881
-65.5693
-66.1234
-66.6471
-67.139
-67.5951
-68.015
-68.3851
-68.6856
-60.2578
-60.3586
-60.5528
-60.857
-61.2565
-61.7267
-62.2459
-62.7968
-63.3655
-63.9402
-64.5112
-65.0709
-65.6133
-66.1342
-66.6297
-67.0976
-67.5337
-67.9371
-68.2948
-68.5878
-60.8639
-60.9503
-61.1168
-61.3787
-61.7251
-62.1366
-62.5959
-63.0888
-63.6032
-64.1282
-64.6547
-65.1751
-65.6834
-66.1747
-66.6449
-67.0914
-67.5097
-67.899
-68.2464
-68.534
-61.3703
-61.4465
-61.5935
-61.8252
-62.1329
-62.5008
-62.9146
-63.3624
-63.8335
-64.3183
-64.8079
-65.2953
-65.7743
-66.24
-66.6881
-67.1158
-67.5186
-67.8958
-68.2344
-68.5178
-61.7889
-61.8582
-61.9921
-62.2033
-62.4841
-62.8209
-63.2014
-63.6153
-64.0532
-64.5063
-64.9665
-65.427
-65.8817
-66.3259
-66.7551
-67.1667
-67.5561
-67.923
-68.2543
-68.5344
-62.1278
-62.1934
-62.3199
-62.5187
-62.7825
-63.0986
-63.4562
-63.8461
-64.2599
-64.6893
-65.127
-65.5663
-66.0016
-66.4282
-66.8419
-67.24
-67.6182
-67.9762
-68.3011
-68.5784
-62.3911
-62.4579
-62.5839
-62.7786
-63.0344
-63.3394
-63.6835
-64.0584
-64.4561
-64.8692
-65.2906
-65.7142
-66.1345
-66.5473
-66.9483
-67.3352
-67.7039
-68.0542
-68.3731
-68.6464
-62.5745
-62.651
-62.7872
-62.9889
-63.2478
-63.5526
-63.8936
-64.263
-64.6534
-65.0576
-65.4693
-65.8825
-66.2923
-66.6945
-67.0854
-67.4629
-67.8233
-68.1669
-68.4807
-68.7491
-62.6596
-62.748
-62.9003
-63.1156
-63.3854
-63.6985
-64.0453
-64.4181
-64.8098
-65.2134
-65.6228
-66.0326
-66.4378
-66.8348
-67.22
-67.5915
-67.9465
-68.2854
-68.5984
-68.8701
)
;

boundaryField
{
    movingWall
    {
        type            zeroGradient;
    }
    bottomWall
    {
        type            zeroGradient;
    }
    leftSide
    {
        type            zeroGradient;
    }
    rightSide
    {
        type            zeroGradient;
    }
    frontAndBack
    {
        type            empty;
    }
}


// ************************************************************************* //
