/*--------------------------------*- C++ -*----------------------------------*\
| =========                 |                                                 |
| \\      /  F ield         | OpenFOAM: The Open Source CFD Toolbox           |
|  \\    /   O peration     | Version:  v1906                                 |
|   \\  /    A nd           | Web:      www.OpenFOAM.com                      |
|    \\/     M anipulation  |                                                 |
\*---------------------------------------------------------------------------*/
FoamFile
{
    version     2.0;
    format      ascii;
    class       surfaceScalarField;
    location    "0.1";
    object      phi;
}
// * * * * * * * * * * * * * * * * * * * * * * * * * * * * * * * * * * * * * //

dimensions      [0 3 -1 0 0 0 0];
oriented        oriented;


internalField   nonuniform List<scalar> 
760
(
0.000438211
6.17888e-05
0.000359163
7.90476e-05
0.000292407
6.67564e-05
0.000239278
5.3129e-05
0.000199334
3.9944e-05
0.000170459
2.88752e-05
0.000149805
2.06541e-05
0.000134839
1.49652e-05
0.000123684
1.1155e-05
0.000115063
8.62157e-06
0.000108154
6.90888e-06
0.000102446
5.70786e-06
9.76207e-05
4.8255e-06
9.34701e-05
4.15054e-06
8.98543e-05
3.61585e-06
8.66604e-05
3.19386e-06
8.3803e-05
2.85739e-06
8.11459e-05
2.65715e-06
7.862e-05
2.5259e-06
3.00929e-06
0.000524274
3.75151e-05
0.000528066
7.52557e-05
0.000511928
8.28936e-05
0.000486056
7.90012e-05
0.000455316
7.06841e-05
0.000423663
6.05283e-05
0.000393811
5.05064e-05
0.000367034
4.17416e-05
0.000343658
3.45308e-05
0.000323515
2.87649e-05
0.000306218
2.4206e-05
0.000291324
2.06022e-05
0.00027842
1.77293e-05
0.000267155
1.5415e-05
0.000257248
1.35228e-05
0.000248464
1.19785e-05
0.000240623
1.06983e-05
0.000233535
9.74462e-06
0.000227071
8.99081e-06
8.79325e-06
0.000517013
2.05019e-05
0.000539014
5.32547e-05
0.00055188
7.00277e-05
0.000555305
7.55761e-05
0.000550763
7.52261e-05
0.000540031
7.12605e-05
0.000525209
6.53283e-05
0.000508183
5.87676e-05
0.000490345
5.23694e-05
0.000472625
4.64849e-05
0.000455599
4.12317e-05
0.000439582
3.66193e-05
0.000424709
3.26019e-05
0.000411007
2.91171e-05
0.000398438
2.60921e-05
0.000386943
2.34736e-05
0.000376428
2.12128e-05
0.000366907
1.9266e-05
0.00035814
1.77581e-05
1.60869e-05
0.000507959
1.25432e-05
0.000524957
3.62561e-05
0.000542178
5.28069e-05
0.000555757
6.19971e-05
0.000564699
6.62841e-05
0.000568792
6.71679e-05
0.000568461
6.56584e-05
0.000564553
6.26758e-05
0.000557982
5.89409e-05
0.000549555
5.4912e-05
0.000539932
5.08545e-05
0.00052963
4.69209e-05
0.000519036
4.31963e-05
0.000508437
3.97161e-05
0.000498023
3.65061e-05
0.00048797
3.35265e-05
0.000478316
3.08667e-05
0.000469336
2.82458e-05
0.000460773
2.63211e-05
2.32914e-05
0.000503902
8.64133e-06
0.000514552
2.56064e-05
0.000528006
3.9352e-05
0.000541271
4.87325e-05
0.000552973
5.45824e-05
0.000562355
5.77859e-05
0.000569059
5.89544e-05
0.00057311
5.86248e-05
0.00057477
5.72812e-05
0.000574388
5.52935e-05
0.000572325
5.29179e-05
0.000568922
5.03236e-05
0.000564482
4.76364e-05
0.000559281
4.49166e-05
0.000553529
4.22587e-05
0.000547466
3.95893e-05
0.000541179
3.71541e-05
0.000535011
3.4413e-05
0.000528804
3.25285e-05
2.88318e-05
0.000502257
6.38422e-06
0.000508886
1.89774e-05
0.000518239
2.99993e-05
0.000528562
3.84094e-05
0.000538802
4.43425e-05
0.000548306
4.82814e-05
0.000556628
5.06324e-05
0.000563524
5.17288e-05
0.000568928
5.18771e-05
0.000572887
5.13352e-05
0.000575502
5.0303e-05
0.000576908
4.89171e-05
0.000577247
4.72971e-05
0.000576678
4.54863e-05
0.000575328
4.3609e-05
0.00057337
4.15466e-05
0.000570884
3.96397e-05
0.000568094
3.7203e-05
0.000564996
3.5627e-05
3.19914e-05
0.000501465
4.91889e-06
0.000505804
1.46391e-05
0.000512299
2.35038e-05
0.00051996
3.07488e-05
0.000528048
3.6254e-05
0.000536085
4.0245e-05
0.000543726
4.29908e-05
0.000550735
4.472e-05
0.000556973
4.56393e-05
0.000562378
4.59295e-05
0.000566939
4.57426e-05
0.000570673
4.51825e-05
0.000573619
4.43519e-05
0.000575831
4.32743e-05
0.000577365
4.20746e-05
0.000578295
4.06167e-05
0.000578685
3.92501e-05
0.000578588
3.72995e-05
0.000578128
3.60874e-05
3.29653e-05
0.000501014
3.90447e-06
0.000504021
1.16324e-05
0.00050868
1.88453e-05
0.000514412
2.50161e-05
0.000520705
2.99612e-05
0.000527196
3.37538e-05
0.000533631
3.65558e-05
0.000539826
3.85251e-05
0.000545657
3.98085e-05
0.000551049
4.05376e-05
0.000555961
4.08309e-05
0.000560373
4.07706e-05
0.00056428
4.0444e-05
0.000567688
3.98666e-05
0.000570614
3.91487e-05
0.000573062
3.8169e-05
0.000575084
3.72279e-05
0.000576619
3.57646e-05
0.000577843
3.48635e-05
3.24082e-05
0.000500738
3.16697e-06
0.000502928
9.44198e-06
0.00050639
1.53832e-05
0.000510776
2.06302e-05
0.000515729
2.50077e-05
0.000520972
2.85117e-05
0.000526301
3.12261e-05
0.000531572
3.32542e-05
0.000536681
3.46997e-05
0.00054156
3.5659e-05
0.000546166
3.62246e-05
0.000550473
3.64638e-05
0.000554467
3.645e-05
0.000558134
3.61996e-05
0.00056148
3.58028e-05
0.000564477
3.51711e-05
0.00056717
3.45349e-05
0.000569452
3.34827e-05
0.000571495
3.28204e-05
3.09988e-05
0.000500559
2.60805e-06
0.000502221
7.78023e-06
0.000504879
1.27253e-05
0.000508316
1.71929e-05
0.000512286
2.10374e-05
0.000516576
2.42217e-05
0.000521021
2.67809e-05
0.000525498
2.87772e-05
0.000529917
3.02809e-05
0.000534215
3.13615e-05
0.00053835
3.20895e-05
0.000542294
3.25193e-05
0.000546033
3.27115e-05
0.000549547
3.26852e-05
0.000552839
3.25111e-05
0.000555875
3.21351e-05
0.000558688
3.17216e-05
0.000561175
3.09963e-05
0.000563476
3.05194e-05
2.92275e-05
0.000500438
2.16974e-06
0.000501742
6.47653e-06
0.000503843
1.06239e-05
0.000506602
1.44344e-05
0.000509846
1.77932e-05
0.000513414
2.06542e-05
0.00051717
2.30244e-05
0.00052101
2.49375e-05
0.000524852
2.64392e-05
0.000528635
2.75778e-05
0.000532319
2.84053e-05
0.000535874
2.8965e-05
0.000539281
2.93045e-05
0.000542521
2.94451e-05
0.000545592
2.94403e-05
0.000548463
2.92635e-05
0.000551158
2.90267e-05
0.000553592
2.85625e-05
0.000555872
2.82396e-05
2.73716e-05
0.000500354
1.81572e-06
0.000501408
5.42295e-06
0.000503115
8.91621e-06
0.000505382
1.21681e-05
0.000508085
1.50902e-05
0.000511101
1.76377e-05
0.000514322
1.98036e-05
0.000517656
2.16033e-05
0.000521031
2.30644e-05
0.000524389
2.42195e-05
0.000527689
2.51056e-05
0.000530898
2.57559e-05
0.000533995
2.62071e-05
0.00053696
2.648e-05
0.000539787
2.66142e-05
0.000542448
2.66023e-05
0.000544957
2.65169e-05
0.000547252
2.62681e-05
0.00054941
2.60813e-05
2.55545e-05
0.000500294
1.52168e-06
0.00050117
4.54727e-06
0.000502595
7.49125e-06
0.000504501
1.02618e-05
0.000506799
1.2792e-05
0.000509394
1.50425e-05
0.000512198
1.70001e-05
0.000515132
1.8669e-05
0.000518132
2.00644e-05
0.000521144
2.12073e-05
0.000524127
2.21228e-05
0.000527047
2.28357e-05
0.000529881
2.33732e-05
0.000532607
2.37542e-05
0.000535214
2.40071e-05
0.00053768
2.41367e-05
0.00054001
2.41864e-05
0.000542157
2.41213e-05
0.00054418
2.40583e-05
2.38136e-05
0.000500251
1.27043e-06
0.000501
3.79865e-06
0.000502221
6.26978e-06
0.000503864
8.61875e-06
0.000505861
1.07956e-05
0.000508136
1.27676e-05
0.000510616
1.45196e-05
0.000513236
1.60493e-05
0.000515937
1.73635e-05
0.00051867
1.84744e-05
0.000521394
1.93983e-05
0.000524077
2.01529e-05
0.000526693
2.07571e-05
0.00052922
2.12275e-05
0.000531644
2.15831e-05
0.000533944
2.18361e-05
0.000536123
2.20076e-05
0.000538141
2.21029e-05
0.000540047
2.21531e-05
2.21489e-05
0.000500221
1.04927e-06
0.000500881
3.13913e-06
0.000501958
5.19236e-06
0.000503412
7.16494e-06
0.000505187
9.02037e-06
0.000507223
1.07322e-05
0.000509457
1.22851e-05
0.000511833
1.36733e-05
0.000514299
1.48977e-05
0.000516809
1.59642e-05
0.000519325
1.68821e-05
0.000521815
1.7663e-05
0.000524253
1.83192e-05
0.000526617
1.88642e-05
0.00052889
1.93093e-05
0.000531056
1.96709e-05
0.000533111
1.99524e-05
0.000535024
2.01895e-05
0.000536834
2.03431e-05
2.05481e-05
0.000500201
8.48077e-07
0.000500802
2.53827e-06
0.000501783
4.21129e-06
0.000503107
5.84094e-06
0.000504727
7.40072e-06
0.00050659
8.8691e-06
0.000508643
1.02317e-05
0.000510836
1.14805e-05
0.000513122
1.26122e-05
0.000515458
1.36277e-05
0.000517809
1.45308e-05
0.000520144
1.53279e-05
0.000522438
1.60257e-05
0.000524668
1.66342e-05
0.000526819
1.71582e-05
0.000528873
1.76167e-05
0.000530828
1.79978e-05
0.000532656
1.83611e-05
0.000534391
1.86085e-05
1.89986e-05
0.000500192
6.56337e-07
0.000500762
1.96828e-06
0.000501688
3.28496e-06
0.000502933
4.59603e-06
0.000504453
5.88089e-06
0.0005062
7.12155e-06
0.000508128
8.30431e-06
0.000510189
9.41931e-06
0.000512341
1.046e-05
0.000514546
1.14232e-05
0.000516769
1.23079e-05
0.000518981
1.31158e-05
0.000521158
1.38487e-05
0.000523279
1.45133e-05
0.000525328
1.51086e-05
0.00052729
1.56547e-05
0.000529161
1.6127e-05
0.000530918
1.66041e-05
0.000532591
1.69351e-05
1.74905e-05
0.0005002
4.56169e-07
0.000500771
1.39706e-06
0.000501683
2.37345e-06
0.000502893
3.38546e-06
0.000504361
4.41389e-06
0.000506039
5.44278e-06
0.000507885
6.45833e-06
0.000509856
7.44865e-06
0.000511912
8.40415e-06
0.000514017
9.31782e-06
0.000516141
1.01845e-05
0.000518255
1.10018e-05
0.000520336
1.17668e-05
0.000522367
1.24831e-05
0.000524331
1.31442e-05
0.000526215
1.37706e-05
0.000528015
1.4327e-05
0.00052971
1.4909e-05
0.000531327
1.53186e-05
1.60088e-05
0.000500237
2.19359e-07
0.000500849
7.85212e-07
0.000501781
1.44065e-06
0.000502994
2.17296e-06
0.000504444
2.96432e-06
0.000506087
3.79927e-06
0.000507883
4.66242e-06
0.000509792
5.53948e-06
0.000511778
6.41798e-06
0.000513809
7.28754e-06
0.000515854
8.13922e-06
0.000517889
8.96669e-06
0.000519893
9.76306e-06
0.000521848
1.05282e-05
0.00052374
1.12513e-05
0.00052556
1.19512e-05
0.000527302
1.25849e-05
0.000528951
1.32602e-05
0.000530516
1.37538e-05
1.45373e-05
0.000500259
0.00050095
0.000501918
0.000503151
0.000504601
0.000506231
0.000508
0.000509874
0.000511817
0.0005138
0.000515794
0.000517777
0.000519729
0.000521633
0.000523477
0.000525253
0.000526959
0.000528592
0.000530191
)
;

boundaryField
{
    movingWall
    {
        type            calculated;
        value           nonuniform List<scalar> 
20
(
-3.9527e-08
9.45462e-08
4.72138e-07
9.40518e-07
1.51353e-06
2.16993e-06
2.89269e-06
3.66597e-06
4.47466e-06
5.30511e-06
6.14479e-06
6.9838e-06
7.81137e-06
8.62414e-06
9.40661e-06
1.01759e-05
1.08789e-05
1.16265e-05
1.21549e-05
1.32307e-05
)
;
    }
    bottomWall
    {
        type            calculated;
        value           uniform 0;
    }
    leftSide
    {
        type            calculated;
        value           nonuniform List<scalar> 
20
(
-0.0005
-0.0005
-0.0005
-0.0005
-0.0005
-0.0005
-0.0005
-0.0005
-0.0005
-0.0005
-0.0005
-0.0005
-0.0005
-0.0005
-0.0005
-0.0005
-0.0005
-0.0005
-0.0005
-0.0005
)
;
    }
    rightSide
    {
        type            calculated;
        value           nonuniform List<scalar> 
20
(
7.56107e-05
0.000221287
0.000350846
0.000453569
0.000523264
0.000561836
0.000577154
0.0005784
0.000572905
0.000565247
0.000557728
0.000551227
0.000545921
0.000541711
0.000538435
0.00053594
0.0005341
0.000532808
0.000531987
0.000531498
)
;
    }
    frontAndBack
    {
        type            empty;
        value           nonuniform 0();
    }
}


// ************************************************************************* //
