/*--------------------------------*- C++ -*----------------------------------*\
| =========                 |                                                 |
| \\      /  F ield         | OpenFOAM: The Open Source CFD Toolbox           |
|  \\    /   O peration     | Version:  v1906                                 |
|   \\  /    A nd           | Web:      www.OpenFOAM.com                      |
|    \\/     M anipulation  |                                                 |
\*---------------------------------------------------------------------------*/
FoamFile
{
    version     2.0;
    format      ascii;
    class       volVectorField;
    location    "0.1";
    object      U;
}
// * * * * * * * * * * * * * * * * * * * * * * * * * * * * * * * * * * * * * //

dimensions      [0 1 -1 0 0 0 0];


internalField   nonuniform List<vector> 
400
(
(8.6662 0.593431 0)
(7.79132 0.90354 0)
(6.57326 0.803427 0)
(5.31099 0.604676 0)
(4.34053 0.414291 0)
(3.66129 0.266206 0)
(3.17994 0.166637 0)
(2.83125 0.105898 0)
(2.57422 0.0706115 0)
(2.37939 0.0503585 0)
(2.22622 0.0384899 0)
(2.10152 0.0311283 0)
(1.99721 0.0261591 0)
(1.90815 0.0225314 0)
(1.83104 0.0197234 0)
(1.7633 0.017615 0)
(1.70341 0.0161113 0)
(1.64846 0.0158919 0)
(1.59738 0.0166647 0)
(1.52797 0.0236571 0)
(10.0413 0.975995 0)
(10.488 1.68488 0)
(10.4902 1.73131 0)
(10.0581 1.54119 0)
(9.44043 1.27532 0)
(8.79138 1.00325 0)
(8.16855 0.766575 0)
(7.59821 0.581567 0)
(7.09432 0.445681 0)
(6.65891 0.348714 0)
(6.28573 0.279831 0)
(5.96547 0.230229 0)
(5.68913 0.193548 0)
(5.44874 0.165629 0)
(5.23833 0.143717 0)
(5.05196 0.126473 0)
(4.88756 0.112616 0)
(4.73623 0.103484 0)
(4.61101 0.0966422 0)
(4.43946 0.103722 0)
(10.0554 0.601914 0)
(10.523 1.32487 0)
(10.9341 1.59939 0)
(11.1229 1.63835 0)
(11.1025 1.55919 0)
(10.9356 1.41597 0)
(10.6709 1.24677 0)
(10.3452 1.07865 0)
(9.99016 0.925884 0)
(9.62972 0.793507 0)
(9.27931 0.681701 0)
(8.94729 0.588551 0)
(8.63785 0.511301 0)
(8.35173 0.447268 0)
(8.08972 0.393845 0)
(7.84809 0.349424 0)
(7.63165 0.312017 0)
(7.42285 0.282166 0)
(7.26412 0.258215 0)
(7.02349 0.241285 0)
(10.0219 0.333145 0)
(10.2905 0.871574 0)
(10.656 1.2028 0)
(10.992 1.37237 0)
(11.2296 1.43516 0)
(11.3599 1.42323 0)
(11.3943 1.36129 0)
(11.348 1.27146 0)
(11.2389 1.17009 0)
(11.0847 1.06721 0)
(10.9008 0.968337 0)
(10.6988 0.87629 0)
(10.4882 0.792231 0)
(10.2744 0.716399 0)
(10.0645 0.648478 0)
(9.85652 0.587773 0)
(9.66523 0.534382 0)
(9.46354 0.485472 0)
(9.32213 0.448178 0)
(9.07059 0.399116 0)
(10.0109 0.211463 0)
(10.1576 0.597137 0)
(10.4019 0.890895 0)
(10.6861 1.08479 0)
(10.9502 1.19912 0)
(11.1667 1.25273 0)
(11.3285 1.26041 0)
(11.4354 1.2359 0)
(11.4912 1.1909 0)
(11.502 1.134 0)
(11.4757 1.07091 0)
(11.419 1.00535 0)
(11.3394 0.939882 0)
(11.2408 0.875839 0)
(11.1319 0.814706 0)
(11.0091 0.755578 0)
(10.8927 0.70203 0)
(10.7501 0.645684 0)
(10.6611 0.605699 0)
(10.4574 0.534646 0)
(10.007 0.150583 0)
(10.095 0.436441 0)
(10.2519 0.676369 0)
(10.4566 0.854169 0)
(10.6724 0.975496 0)
(10.8756 1.05174 0)
(11.0561 1.09243 0)
(11.2092 1.10571 0)
(11.3325 1.09887 0)
(11.4258 1.07781 0)
(11.491 1.047 0)
(11.5302 1.00952 0)
(11.5473 0.967948 0)
(11.5433 0.923404 0)
(11.5252 0.878282 0)
(11.4876 0.830639 0)
(11.4499 0.786795 0)
(11.3814 0.733863 0)
(11.3501 0.698899 0)
(11.223 0.622489 0)
(10.0049 0.1136 0)
(10.0625 0.332405 0)
(10.1673 0.525723 0)
(10.3121 0.67989 0)
(10.4757 0.794273 0)
(10.6414 0.874933 0)
(10.8004 0.928161 0)
(10.948 0.95926 0)
(11.0812 0.972984 0)
(11.198 0.973403 0)
(11.2978 0.96387 0)
(11.3804 0.946702 0)
(11.4473 0.924117 0)
(11.4978 0.896743 0)
(11.5364 0.86718 0)
(11.5578 0.832736 0)
(11.576 0.80068 0)
(11.568 0.756813 0)
(11.5799 0.729336 0)
(11.525 0.660244 0)
(10.0035 0.0886899 0)
(10.0437 0.260852 0)
(10.1173 0.417859 0)
(10.2224 0.54975 0)
(10.3463 0.653524 0)
(10.4774 0.731638 0)
(10.6085 0.787997 0)
(10.7358 0.826262 0)
(10.8567 0.849797 0)
(10.9694 0.861575 0)
(11.0728 0.864207 0)
(11.1659 0.859491 0)
(11.2494 0.849308 0)
(11.322 0.833995 0)
(11.3862 0.815943 0)
(11.438 0.792465 0)
(11.4858 0.770223 0)
(11.5151 0.736564 0)
(11.5515 0.715942 0)
(11.5471 0.659915 0)
(10.0026 0.0710238 0)
(10.032 0.209664 0)
(10.0861 0.338737 0)
(10.1649 0.451213 0)
(10.2606 0.543669 0)
(10.3648 0.616544 0)
(10.472 0.672016 0)
(10.5789 0.712541 0)
(10.6833 0.740536 0)
(10.7836 0.758209 0)
(10.8787 0.767621 0)
(10.9679 0.770231 0)
(11.0512 0.767636 0)
(11.1275 0.760128 0)
(11.1982 0.749715 0)
(11.2606 0.734265 0)
(11.3191 0.719092 0)
(11.3659 0.694451 0)
(11.4123 0.679175 0)
(11.4356 0.636779 0)
(10.002 0.0579606 0)
(10.0244 0.171568 0)
(10.0657 0.278807 0)
(10.1266 0.374716 0)
(10.2021 0.456245 0)
(10.2864 0.522894 0)
(10.3749 0.575694 0)
(10.4648 0.616183 0)
(10.5543 0.646031 0)
(10.6418 0.666851 0)
(10.7265 0.680232 0)
(10.8074 0.687372 0)
(10.8844 0.689598 0)
(10.9568 0.687265 0)
(11.0252 0.681965 0)
(11.0881 0.672293 0)
(11.1472 0.662135 0)
(11.199 0.644746 0)
(11.2472 0.633545 0)
(11.2818 0.602938 0)
(10.0016 0.0479266 0)
(10.0192 0.142157 0)
(10.0517 0.231978 0)
(10.1001 0.313855 0)
(10.1611 0.385304 0)
(10.2304 0.445486 0)
(10.3046 0.49474 0)
(10.3811 0.533944 0)
(10.4584 0.564197 0)
(10.535 0.586641 0)
(10.61 0.602466 0)
(10.6825 0.612631 0)
(10.7523 0.618205 0)
(10.8188 0.6196 0)
(10.8821 0.618035 0)
(10.9413 0.612743 0)
(10.9973 0.606416 0)
(11.0481 0.594773 0)
(11.0945 0.586865 0)
(11.1311 0.565736 0)
(10.0013 0.039962 0)
(10.0155 0.118725 0)
(10.0419 0.19436 0)
(10.0814 0.264322 0)
(10.1318 0.326661 0)
(10.1898 0.380487 0)
(10.2529 0.425763 0)
(10.319 0.462929 0)
(10.3865 0.492669 0)
(10.4541 0.515766 0)
(10.521 0.53308 0)
(10.5862 0.545361 0)
(10.6495 0.553438 0)
(10.7101 0.557737 0)
(10.7682 0.559169 0)
(10.823 0.55743 0)
(10.8749 0.554308 0)
(10.9226 0.547343 0)
(10.9663 0.542296 0)
(11.0011 0.52871 0)
(10.0011 0.0334518 0)
(10.0129 0.0995193 0)
(10.0349 0.163346 0)
(10.068 0.223087 0)
(10.1105 0.277243 0)
(10.1601 0.324997 0)
(10.2146 0.36613 0)
(10.2724 0.40081 0)
(10.3321 0.429432 0)
(10.3925 0.452511 0)
(10.4528 0.470648 0)
(10.512 0.484408 0)
(10.5697 0.494416 0)
(10.6253 0.501075 0)
(10.6788 0.505045 0)
(10.7295 0.506327 0)
(10.7776 0.506042 0)
(10.822 0.503021 0)
(10.8631 0.500564 0)
(10.895 0.493121 0)
(10.0009 0.0279771 0)
(10.0111 0.0833343 0)
(10.0299 0.1371 0)
(10.0583 0.187945 0)
(10.0951 0.234734 0)
(10.1383 0.27677 0)
(10.1863 0.313764 0)
(10.2376 0.34572 0)
(10.2911 0.372837 0)
(10.3458 0.395431 0)
(10.4006 0.413905 0)
(10.4548 0.42867 0)
(10.508 0.440176 0)
(10.5595 0.44878 0)
(10.6091 0.454943 0)
(10.6563 0.45885 0)
(10.7014 0.461123 0)
(10.7427 0.461517 0)
(10.7818 0.461433 0)
(10.8109 0.459154 0)
(10.0008 0.0232376 0)
(10.0097 0.0693004 0)
(10.0263 0.114276 0)
(10.0514 0.157238 0)
(10.084 0.197347 0)
(10.1226 0.234028 0)
(10.1656 0.26698 0)
(10.212 0.296114 0)
(10.2607 0.321495 0)
(10.3107 0.343294 0)
(10.3612 0.361759 0)
(10.4114 0.377172 0)
(10.4609 0.38984 0)
(10.509 0.400059 0)
(10.5555 0.408127 0)
(10.5998 0.414338 0)
(10.6424 0.418922 0)
(10.6813 0.422321 0)
(10.7186 0.424401 0)
(10.7455 0.426588 0)
(10.0007 0.0190034 0)
(10.0089 0.0567606 0)
(10.024 0.0938646 0)
(10.0469 0.129712 0)
(10.0766 0.163699 0)
(10.1117 0.195367 0)
(10.1512 0.224425 0)
(10.1939 0.250733 0)
(10.239 0.274264 0)
(10.2854 0.295078 0)
(10.3325 0.313302 0)
(10.3795 0.329108 0)
(10.426 0.342682 0)
(10.4713 0.354257 0)
(10.5153 0.363991 0)
(10.5572 0.37224 0)
(10.5977 0.378911 0)
(10.6346 0.384977 0)
(10.6706 0.389016 0)
(10.6956 0.395109 0)
(10.0007 0.0150544 0)
(10.0084 0.0451294 0)
(10.0227 0.0750251 0)
(10.0443 0.104373 0)
(10.0722 0.132736 0)
(10.1052 0.159744 0)
(10.1422 0.185126 0)
(10.1823 0.208708 0)
(10.2247 0.230392 0)
(10.2685 0.250154 0)
(10.3129 0.268019 0)
(10.3574 0.284066 0)
(10.4015 0.298377 0)
(10.4445 0.311118 0)
(10.4864 0.322326 0)
(10.5264 0.332393 0)
(10.5652 0.340951 0)
(10.6005 0.349398 0)
(10.6354 0.355213 0)
(10.6588 0.364683 0)
(10.0007 0.011061 0)
(10.0086 0.0335601 0)
(10.0229 0.0565762 0)
(10.044 0.0798437 0)
(10.071 0.102991 0)
(10.1028 0.125693 0)
(10.1383 0.147681 0)
(10.1766 0.168742 0)
(10.2171 0.188717 0)
(10.2589 0.207502 0)
(10.3014 0.225034 0)
(10.3439 0.241305 0)
(10.386 0.256304 0)
(10.4272 0.270131 0)
(10.4673 0.282711 0)
(10.5057 0.294454 0)
(10.543 0.304755 0)
(10.5768 0.315377 0)
(10.6107 0.32285 0)
(10.6329 0.33541 0)
(10.0008 0.00656692 0)
(10.0096 0.0207881 0)
(10.0247 0.0365134 0)
(10.0461 0.0534538 0)
(10.073 0.0712393 0)
(10.1042 0.0895482 0)
(10.1388 0.108088 0)
(10.1761 0.126595 0)
(10.2152 0.144838 0)
(10.2555 0.162637 0)
(10.2965 0.17984 0)
(10.3374 0.19635 0)
(10.3779 0.212061 0)
(10.4176 0.227 0)
(10.4562 0.240983 0)
(10.4932 0.254404 0)
(10.5292 0.266452 0)
(10.562 0.279187 0)
(10.595 0.288294 0)
(10.6163 0.304217 0)
(10.001 0.00224728 0)
(10.0109 0.00881293 0)
(10.027 0.0176402 0)
(10.049 0.0284658 0)
(10.0761 0.0409725 0)
(10.1072 0.0548574 0)
(10.1414 0.0698203 0)
(10.178 0.085569 0)
(10.2164 0.101829 0)
(10.2558 0.118358 0)
(10.2957 0.134932 0)
(10.3356 0.15138 0)
(10.3751 0.167513 0)
(10.4137 0.183283 0)
(10.4514 0.198413 0)
(10.4874 0.213258 0)
(10.5227 0.226824 0)
(10.5548 0.241343 0)
(10.5876 0.251796 0)
(10.6085 0.270115 0)
)
;

boundaryField
{
    movingWall
    {
        type            zeroGradient;
    }
    bottomWall
    {
        type            noSlip;
    }
    leftSide
    {
        type            fixedValue;
        value           uniform (10 0 0);
    }
    rightSide
    {
        type            zeroGradient;
    }
    frontAndBack
    {
        type            empty;
    }
}


// ************************************************************************* //
