/*--------------------------------*- C++ -*----------------------------------*\
| =========                 |                                                 |
| \\      /  F ield         | OpenFOAM: The Open Source CFD Toolbox           |
|  \\    /   O peration     | Version:  v1906                                 |
|   \\  /    A nd           | Web:      www.OpenFOAM.com                      |
|    \\/     M anipulation  |                                                 |
\*---------------------------------------------------------------------------*/
FoamFile
{
    version     2.0;
    format      ascii;
    class       volScalarField;
    location    "500/baffle3DRegion";
    object      T;
}
// * * * * * * * * * * * * * * * * * * * * * * * * * * * * * * * * * * * * * //

dimensions      [0 0 0 1 0 0 0];


internalField   nonuniform List<scalar> 
800
(
364.017
370.552
376.823
382.831
388.575
394.055
399.272
404.224
408.912
413.335
417.494
421.387
425.016
428.379
431.477
434.31
436.877
439.179
441.214
442.984
444.488
445.725
446.697
447.402
447.841
448.013
447.919
447.558
446.931
446.038
444.877
443.45
441.756
439.796
437.568
435.074
432.313
429.285
425.991
422.429
418.601
414.506
410.144
405.515
400.62
395.458
390.029
384.334
378.372
372.144
355.135
361.906
368.403
374.627
380.577
386.255
391.66
396.791
401.65
406.237
410.55
414.592
418.361
421.858
425.083
428.035
430.716
433.124
435.261
437.125
438.718
440.039
441.089
441.866
442.372
442.606
442.569
442.259
441.679
440.826
439.702
438.307
436.639
434.7
432.49
430.007
427.253
424.227
420.93
417.361
413.519
409.406
405.021
400.364
395.435
390.234
384.76
379.014
372.996
366.706
347.899
354.747
361.32
367.619
373.642
379.392
384.867
390.067
394.993
399.646
404.024
408.128
411.958
415.515
418.798
421.807
424.543
427.006
429.195
431.111
432.753
434.123
435.219
436.043
436.594
436.872
436.877
436.609
436.069
435.256
434.171
432.813
431.183
429.28
427.105
424.658
421.938
418.947
415.683
412.147
408.339
404.259
399.908
395.284
390.388
385.221
379.781
374.07
368.088
361.833
343.605
350.413
356.948
363.209
369.197
374.912
380.353
385.521
390.416
395.038
399.387
403.463
407.266
410.796
414.053
417.037
419.749
422.188
424.354
426.248
427.869
429.217
430.293
431.097
431.629
431.888
431.875
431.59
431.033
430.204
429.103
427.73
426.086
424.169
421.981
419.522
416.791
413.788
410.515
406.97
403.154
399.067
394.709
390.08
385.18
380.01
374.569
368.858
362.876
356.625
340.737
347.465
353.92
360.102
366.012
371.648
377.012
382.103
386.921
391.466
395.738
399.737
403.464
406.917
410.098
413.006
415.641
418.004
420.093
421.91
423.454
424.725
425.723
426.448
426.901
427.08
426.987
426.621
425.982
425.071
423.886
422.429
420.699
418.696
416.42
413.871
411.05
407.956
404.589
400.949
397.036
392.85
388.391
383.66
378.655
373.378
367.828
362.005
355.908
349.539
338.702
345.351
351.727
357.83
363.661
369.219
374.504
379.517
384.257
388.724
392.918
396.839
400.488
403.863
406.966
409.796
412.352
414.636
416.647
418.385
419.85
421.042
421.96
422.606
422.978
423.078
422.904
422.457
421.736
420.743
419.476
417.935
416.122
414.035
411.674
409.04
406.133
402.952
399.497
395.769
391.767
387.491
382.942
378.119
373.021
367.65
362.005
356.087
349.894
343.426
337.297
343.884
350.2
356.243
362.013
367.511
372.737
377.69
382.371
386.779
390.915
394.778
398.369
401.687
404.732
407.505
410.005
412.233
414.188
415.87
417.279
418.416
419.28
419.872
420.19
420.236
420.009
419.509
418.736
417.69
416.372
414.781
412.916
410.779
408.369
405.686
402.729
399.5
395.998
392.223
388.175
383.853
379.259
374.391
369.251
363.837
358.15
352.19
345.956
339.45
336.223
342.769
349.044
355.046
360.776
366.233
371.418
376.331
380.972
385.34
389.436
393.26
396.811
400.09
403.096
405.83
408.292
410.481
412.398
414.042
415.414
416.514
417.341
417.895
418.177
418.187
417.924
417.389
416.581
415.5
414.147
412.522
410.624
408.454
406.01
403.295
400.307
397.046
393.512
389.707
385.628
381.277
376.653
371.757
366.588
361.146
355.432
349.445
343.186
336.654
335.396
341.912
348.155
354.126
359.825
365.252
370.406
375.289
379.899
384.237
388.302
392.096
395.617
398.866
401.843
404.547
406.98
409.14
411.027
412.643
413.986
415.057
415.855
416.382
416.636
416.617
416.327
415.764
414.929
413.821
412.441
410.789
408.864
406.667
404.198
401.457
398.443
395.156
391.598
387.767
383.663
379.287
374.639
369.719
364.526
359.061
353.323
347.313
341.03
334.475
334.738
341.228
347.446
353.392
359.065
364.467
369.596
374.453
379.038
383.351
387.392
391.161
394.658
397.882
400.834
403.515
405.923
408.059
409.922
411.514
412.833
413.881
414.656
415.159
415.39
415.348
415.035
414.449
413.591
412.461
411.059
409.384
407.437
405.219
402.728
399.964
396.929
393.621
390.041
386.189
382.065
377.668
373
368.059
362.846
357.36
351.602
345.573
339.27
332.696
334.177
340.645
346.84
352.763
358.414
363.793
368.9
373.735
378.299
382.59
386.609
390.356
393.83
397.033
399.964
402.623
405.01
407.125
408.967
410.538
411.837
412.863
413.618
414.1
414.311
414.249
413.916
413.31
412.432
411.283
409.861
408.167
406.201
403.963
401.453
398.671
395.616
392.29
388.692
384.821
380.679
376.264
371.578
366.619
361.388
355.885
350.11
344.063
337.744
331.153
333.639
340.084
346.257
352.159
357.788
363.145
368.231
373.044
377.586
381.856
385.854
389.58
393.035
396.217
399.128
401.766
404.133
406.228
408.051
409.602
410.882
411.889
412.625
413.088
413.28
413.2
412.848
412.223
411.328
410.16
408.72
407.008
405.024
402.769
400.241
397.442
394.37
391.027
387.411
383.524
379.364
374.933
370.229
365.254
360.006
354.487
348.695
342.632
336.296
329.688
332.985
339.405
345.553
351.431
357.037
362.371
367.435
372.226
376.747
380.996
384.973
388.68
392.114
395.278
398.17
400.79
403.139
405.217
407.023
408.558
409.821
410.812
411.532
411.981
412.158
412.063
411.697
411.06
410.15
408.969
407.517
405.793
403.797
401.53
398.991
396.18
393.097
389.743
386.117
382.22
378.05
373.609
368.896
363.912
358.655
353.127
347.327
341.255
334.911
328.295
331.71
338.107
344.233
350.09
355.676
360.992
366.038
370.814
375.319
379.554
383.519
387.212
390.636
393.789
396.671
399.282
401.623
403.693
405.493
407.021
408.279
409.265
409.981
410.426
410.6
410.503
410.135
409.495
408.585
407.403
405.951
404.227
402.232
399.965
397.428
394.619
391.539
388.187
384.564
380.67
376.504
372.067
367.359
362.379
357.127
351.604
345.81
339.744
333.406
326.797
328.472
334.899
341.056
346.943
352.561
357.908
362.986
367.793
372.33
376.596
380.592
384.317
387.772
390.956
393.868
396.51
398.881
400.981
402.81
404.368
405.654
406.669
407.413
407.885
408.087
408.016
407.675
407.062
406.177
405.021
403.593
401.894
399.924
397.682
395.169
392.384
389.327
385.999
382.4
378.529
374.387
369.973
365.288
360.332
355.104
349.606
343.836
337.794
331.482
324.899
322.704
329.314
335.646
341.7
347.478
352.978
358.201
363.147
367.816
372.209
376.325
380.165
383.728
387.016
390.027
392.762
395.222
397.406
399.314
400.947
402.304
403.385
404.192
404.723
404.979
404.959
404.665
404.095
403.25
402.131
400.736
399.067
397.122
394.903
392.409
389.64
386.596
383.278
379.684
375.816
371.673
367.255
362.563
357.596
352.354
346.837
341.045
334.978
328.637
322.021
)
;

boundaryField
{
    bottom
    {
        type            compressible::thermalBaffle;
        refValue        nonuniform List<scalar> 
16
(
306.055
306.149
305.843
305.542
305.323
305.166
305.058
304.984
304.934
304.898
304.861
304.806
304.681
304.293
303.272
301.616
)
;
        refGradient     uniform 0;
        valueFraction   nonuniform List<scalar> 
16
(
0.0586357
0.0719023
0.0846882
0.0930222
0.0988416
0.103194
0.106396
0.10914
0.111412
0.113303
0.11494
0.116476
0.11821
0.121578
0.13286
0.163314
)
;
        value           nonuniform List<scalar> 
16
(
361.014
351.67
344.358
340.055
337.221
335.225
333.851
332.798
331.987
331.342
330.792
330.265
329.623
328.36
325.11
319.251
)
;
        Tnbr            T;
        qrNbr           none;
        qr              none;
        thermalInertia  false;
        thicknessLayers 0();
        kappaLayers     0();
        kappaMethod     solidThermo;
        kappa           none;
        alphaAni        none;
    }
    top
    {
        type            compressible::thermalBaffle;
        refValue        nonuniform List<scalar> 
16
(
311.122
311.525
312.512
312.253
309.268
306.568
305.306
304.576
304.032
303.605
303.244
302.917
302.607
302.288
301.916
301.364
)
;
        refGradient     uniform 0;
        valueFraction   nonuniform List<scalar> 
16
(
0.0532167
0.0594705
0.066159
0.0734912
0.082468
0.0914483
0.0992807
0.106065
0.112133
0.117676
0.12296
0.128493
0.134066
0.14037
0.149119
0.166811
)
;
        value           nonuniform List<scalar> 
16
(
368.736
363.357
358.52
353.305
346.163
340.016
336.031
333.227
331.041
329.255
327.705
326.234
324.838
323.346
321.462
318.567
)
;
        Tnbr            T;
        qrNbr           none;
        qr              none;
        thermalInertia  false;
        thicknessLayers 0();
        kappaLayers     0();
        kappaMethod     solidThermo;
        kappa           none;
        alphaAni        none;
    }
    side
    {
        type            zeroGradient;
    }
}


// ************************************************************************* //
