/*--------------------------------*- C++ -*----------------------------------*\
| =========                 |                                                 |
| \\      /  F ield         | OpenFOAM: The Open Source CFD Toolbox           |
|  \\    /   O peration     | Version:  v1906                                 |
|   \\  /    A nd           | Web:      www.OpenFOAM.com                      |
|    \\/     M anipulation  |                                                 |
\*---------------------------------------------------------------------------*/
FoamFile
{
    version     2.0;
    format      ascii;
    class       volScalarField;
    location    "0.2";
    object      p;
}
// * * * * * * * * * * * * * * * * * * * * * * * * * * * * * * * * * * * * * //

dimensions      [0 2 -2 0 0 0 0];


internalField   nonuniform List<scalar> 
400
(
-1.26054e-12
-9.72482e-07
-2.54084e-06
-4.23568e-06
-6.02578e-06
-7.92093e-06
-9.90841e-06
-1.19709e-05
-1.40952e-05
-1.62745e-05
-1.85081e-05
-2.07979e-05
-2.31465e-05
-2.5554e-05
-2.80133e-05
-3.05022e-05
-3.29819e-05
-3.54389e-05
-3.78881e-05
-3.95949e-05
-3.4754e-07
-1.34405e-06
-2.95537e-06
-4.63083e-06
-6.3724e-06
-8.2103e-06
-1.01348e-05
-1.21284e-05
-1.41808e-05
-1.62879e-05
-1.84491e-05
-2.06661e-05
-2.29418e-05
-2.52753e-05
-2.76582e-05
-3.00688e-05
-3.24685e-05
-3.48655e-05
-3.73536e-05
-3.91699e-05
-6.14961e-07
-1.54058e-06
-3.16575e-06
-4.84241e-06
-6.55546e-06
-8.35782e-06
-1.02425e-05
-1.21917e-05
-1.41963e-05
-1.62531e-05
-1.83627e-05
-2.05272e-05
-2.27497e-05
-2.50296e-05
-2.73573e-05
-2.97118e-05
-3.20579e-05
-3.44259e-05
-3.69667e-05
-3.88643e-05
-8.68526e-07
-1.65524e-06
-3.27022e-06
-4.94648e-06
-6.63734e-06
-8.41193e-06
-1.02678e-05
-1.21862e-05
-1.4158e-05
-1.61795e-05
-1.82502e-05
-2.03725e-05
-2.25509e-05
-2.47864e-05
-2.70704e-05
-2.93818e-05
-3.16872e-05
-3.40325e-05
-3.65927e-05
-3.84918e-05
-1.1014e-06
-1.73135e-06
-3.31698e-06
-4.98941e-06
-6.65854e-06
-8.40733e-06
-1.02396e-05
-1.21345e-05
-1.40821e-05
-1.60775e-05
-1.81185e-05
-2.02054e-05
-2.23418e-05
-2.453e-05
-2.67656e-05
-2.9032e-05
-3.12974e-05
-3.36124e-05
-3.61581e-05
-3.8021e-05
-1.28041e-06
-1.75693e-06
-3.30785e-06
-4.9743e-06
-6.6237e-06
-8.35101e-06
-1.01648e-05
-1.20422e-05
-1.39718e-05
-1.59476e-05
-1.79652e-05
-2.00231e-05
-2.21211e-05
-2.426e-05
-2.64399e-05
-2.86521e-05
-3.08702e-05
-3.31461e-05
-3.5657e-05
-3.74689e-05
-1.37734e-06
-1.72226e-06
-3.24293e-06
-4.90387e-06
-6.53711e-06
-8.24784e-06
-1.0048e-05
-1.19133e-05
-1.38302e-05
-1.57898e-05
-1.77857e-05
-1.9815e-05
-2.18766e-05
-2.39687e-05
-2.60923e-05
-2.82454e-05
-3.04093e-05
-3.26373e-05
-3.51012e-05
-3.68675e-05
-1.37705e-06
-1.62483e-06
-3.12681e-06
-4.78656e-06
-6.40861e-06
-8.10651e-06
-9.89656e-06
-1.17536e-05
-1.36615e-05
-1.56072e-05
-1.75811e-05
-1.95794e-05
-2.16021e-05
-2.36489e-05
-2.5721e-05
-2.78185e-05
-2.99268e-05
-3.20997e-05
-3.45083e-05
-3.6244e-05
-1.2677e-06
-1.46085e-06
-2.96169e-06
-4.6275e-06
-6.24541e-06
-7.93609e-06
-9.7199e-06
-1.15707e-05
-1.34698e-05
-1.54014e-05
-1.73539e-05
-1.93217e-05
-2.13054e-05
-2.3308e-05
-2.53332e-05
-2.73808e-05
-2.94353e-05
-3.15476e-05
-3.38951e-05
-3.56199e-05
-1.04082e-06
-1.22455e-06
-2.74528e-06
-4.42641e-06
-6.04988e-06
-7.74271e-06
-9.52619e-06
-1.13717e-05
-1.32589e-05
-1.5173e-05
-1.71035e-05
-1.90442e-05
-2.0994e-05
-2.29566e-05
-2.49379e-05
-2.69377e-05
-2.89384e-05
-3.09853e-05
-3.32691e-05
-3.50077e-05
-6.90942e-07
-9.11738e-07
-2.47401e-06
-4.18184e-06
-5.82266e-06
-7.52799e-06
-9.31667e-06
-1.1157e-05
-1.30292e-05
-1.4922e-05
-1.68299e-05
-1.87476e-05
-2.06709e-05
-2.25997e-05
-2.4539e-05
-2.64895e-05
-2.84339e-05
-3.04128e-05
-3.26341e-05
-3.44171e-05
-2.17149e-07
-5.20721e-07
-2.14683e-06
-3.89417e-06
-5.56409e-06
-7.28922e-06
-9.08507e-06
-1.09194e-05
-1.27761e-05
-1.46494e-05
-1.65378e-05
-1.84372e-05
-2.03393e-05
-2.22384e-05
-2.41363e-05
-2.60361e-05
-2.79245e-05
-2.98376e-05
-3.2002e-05
-3.38603e-05
3.71086e-07
-5.50325e-08
-1.76591e-06
-3.56396e-06
-5.27232e-06
-7.02111e-06
-8.82375e-06
-1.06522e-05
-1.24975e-05
-1.43597e-05
-1.62374e-05
-1.81231e-05
-2.00048e-05
-2.18732e-05
-2.37298e-05
-2.55821e-05
-2.74208e-05
-2.92746e-05
-3.13895e-05
-3.33501e-05
1.04794e-06
4.67398e-07
-1.34222e-06
-3.19563e-06
-4.94667e-06
-6.72083e-06
-8.53169e-06
-1.03586e-05
-1.22015e-05
-1.40637e-05
-1.59393e-05
-1.78138e-05
-1.9672e-05
-2.15076e-05
-2.3327e-05
-2.51411e-05
-2.694e-05
-2.87401e-05
-3.08099e-05
-3.2899e-05
1.76952e-06
1.01135e-06
-8.99294e-07
-2.80141e-06
-4.59087e-06
-6.38999e-06
-8.21444e-06
-1.00508e-05
-1.19032e-05
-1.37735e-05
-1.56492e-05
-1.75105e-05
-1.93446e-05
-2.1153e-05
-2.29468e-05
-2.47347e-05
-2.64999e-05
-2.82465e-05
-3.0275e-05
-3.25206e-05
2.4806e-06
1.53649e-06
-4.62947e-07
-2.39528e-06
-4.21064e-06
-6.03255e-06
-7.87839e-06
-9.73806e-06
-1.16112e-05
-1.3492e-05
-1.53641e-05
-1.72114e-05
-1.90301e-05
-2.08269e-05
-2.26089e-05
-2.43766e-05
-2.61099e-05
-2.78067e-05
-2.97993e-05
-3.22198e-05
3.12241e-06
2.00957e-06
-4.96869e-08
-1.98726e-06
-3.81508e-06
-5.65907e-06
-7.53455e-06
-9.42658e-06
-1.13236e-05
-1.32126e-05
-1.50814e-05
-1.69248e-05
-1.87449e-05
-2.05445e-05
-2.23225e-05
-2.40739e-05
-2.57804e-05
-2.74353e-05
-2.93974e-05
-3.20021e-05
3.66077e-06
2.42389e-06
3.51332e-07
-1.57107e-06
-3.40934e-06
-5.28101e-06
-7.19075e-06
-9.11426e-06
-1.10318e-05
-1.29307e-05
-1.48077e-05
-1.66646e-05
-1.85008e-05
-2.03104e-05
-2.20903e-05
-2.38373e-05
-2.55272e-05
-2.71435e-05
-2.90802e-05
-3.18563e-05
4.08879e-06
2.82843e-06
8.02014e-07
-1.10527e-06
-2.96749e-06
-4.87675e-06
-6.82304e-06
-8.77637e-06
-1.07178e-05
-1.26403e-05
-1.45444e-05
-1.64314e-05
-1.82962e-05
-2.01268e-05
-2.19173e-05
-2.36704e-05
-2.53645e-05
-2.6969e-05
-2.88974e-05
-3.18653e-05
4.53568e-06
3.31933e-06
1.37475e-06
-5.35245e-07
-2.43956e-06
-4.39478e-06
-6.38276e-06
-8.37406e-06
-1.03539e-05
-1.23211e-05
-1.42768e-05
-1.62139e-05
-1.81183e-05
-1.99828e-05
-2.181e-05
-2.35951e-05
-2.5308e-05
-2.69208e-05
-2.89028e-05
-3.22054e-05
)
;

boundaryField
{
    movingWall
    {
        type            zeroGradient;
    }
    bottomWall
    {
        type            zeroGradient;
    }
    leftSide
    {
        type            zeroGradient;
    }
    rightSide
    {
        type            zeroGradient;
    }
    frontAndBack
    {
        type            empty;
    }
}


// ************************************************************************* //
