/*--------------------------------*- C++ -*----------------------------------*\
| =========                 |                                                 |
| \\      /  F ield         | OpenFOAM: The Open Source CFD Toolbox           |
|  \\    /   O peration     | Version:  v1906                                 |
|   \\  /    A nd           | Web:      www.OpenFOAM.com                      |
|    \\/     M anipulation  |                                                 |
\*---------------------------------------------------------------------------*/
FoamFile
{
    version     2.0;
    format      ascii;
    class       surfaceScalarField;
    location    "0.2";
    object      phi;
}
// * * * * * * * * * * * * * * * * * * * * * * * * * * * * * * * * * * * * * //

dimensions      [0 3 -1 0 0 0 0];
oriented        oriented;


internalField   nonuniform List<scalar> 
760
(
8.86182e-07
-7.53658e-12
8.86189e-07
-7.32891e-12
8.86196e-07
-6.21442e-12
8.86201e-07
-5.47032e-12
8.86206e-07
-4.75672e-12
8.8621e-07
-4.01122e-12
8.86213e-07
-3.19972e-12
8.86215e-07
-2.37065e-12
8.86217e-07
-1.54798e-12
8.86218e-07
-7.44015e-13
8.86218e-07
4.224e-14
8.86217e-07
8.17038e-13
8.86215e-07
1.60311e-12
8.86213e-07
2.42212e-12
8.8621e-07
3.29588e-12
8.86205e-07
4.25129e-12
8.862e-07
5.33249e-12
8.86193e-07
6.80061e-12
8.86184e-07
9.65302e-12
1.21723e-11
2.66733e-06
-1.74934e-11
2.66734e-06
-1.77552e-11
2.66735e-06
-1.62679e-11
2.66736e-06
-1.47681e-11
2.66737e-06
-1.30505e-11
2.66738e-06
-1.11058e-11
2.66738e-06
-8.94787e-12
2.66739e-06
-6.67667e-12
2.66739e-06
-4.36639e-12
2.66739e-06
-2.0555e-12
2.66739e-06
2.55656e-13
2.66739e-06
2.588e-12
2.66739e-06
4.9784e-12
2.66738e-06
7.47373e-12
2.66737e-06
1.01227e-11
2.66737e-06
1.29724e-11
2.66735e-06
1.60881e-11
2.66734e-06
1.96794e-11
2.66733e-06
2.50815e-11
2.92191e-11
4.47469e-06
-2.51516e-11
4.4747e-06
-2.58944e-11
4.47471e-06
-2.45594e-11
4.47472e-06
-2.27894e-11
4.47472e-06
-2.0414e-11
4.47473e-06
-1.753e-11
4.47474e-06
-1.42299e-11
4.47474e-06
-1.0663e-11
4.47474e-06
-6.951e-12
4.47474e-06
-3.15899e-12
4.47474e-06
6.98728e-13
4.47474e-06
4.64957e-12
4.47474e-06
8.75088e-12
4.47473e-06
1.30674e-11
4.47472e-06
1.76472e-11
4.47471e-06
2.25084e-11
4.4747e-06
2.76429e-11
4.47469e-06
3.30394e-11
4.47468e-06
4.00131e-11
4.4939e-11
6.3251e-06
-2.90124e-11
6.3251e-06
-3.01536e-11
6.3251e-06
-2.92419e-11
6.32511e-06
-2.75467e-11
6.32511e-06
-2.49231e-11
6.32512e-06
-2.15385e-11
6.32512e-06
-1.75308e-11
6.32512e-06
-1.30849e-11
6.32512e-06
-8.35889e-12
6.32512e-06
-3.44061e-12
6.32512e-06
1.64731e-12
6.32512e-06
6.92758e-12
6.32512e-06
1.24574e-11
6.32511e-06
1.83034e-11
6.32511e-06
2.44962e-11
6.3251e-06
3.10018e-11
6.32509e-06
3.76904e-11
6.32508e-06
4.43287e-11
6.32506e-06
5.2257e-11
5.76597e-11
8.23437e-06
-2.89348e-11
8.23437e-06
-3.02973e-11
8.23437e-06
-2.98503e-11
8.23438e-06
-2.83825e-11
8.23438e-06
-2.5824e-11
8.23438e-06
-2.23491e-11
8.23438e-06
-1.81033e-11
8.23438e-06
-1.32853e-11
8.23438e-06
-8.06121e-12
8.23438e-06
-2.52856e-12
8.23438e-06
3.2825e-12
8.23437e-06
9.38918e-12
8.23437e-06
1.58411e-11
8.23437e-06
2.2691e-11
8.23436e-06
2.99414e-11
8.23435e-06
3.74993e-11
8.23435e-06
4.5138e-11
8.23434e-06
5.24756e-11
8.23433e-06
6.09512e-11
6.67698e-11
1.0217e-05
-2.51535e-11
1.0217e-05
-2.65953e-11
1.0217e-05
-2.65473e-11
1.0217e-05
-2.53272e-11
1.0217e-05
-2.30314e-11
1.0217e-05
-1.97943e-11
1.0217e-05
-1.57386e-11
1.0217e-05
-1.10453e-11
1.0217e-05
-5.86407e-12
1.0217e-05
-2.85958e-13
1.0217e-05
5.65904e-12
1.0217e-05
1.1988e-11
1.0217e-05
1.87447e-11
1.0217e-05
2.59639e-11
1.0217e-05
3.36266e-11
1.0217e-05
4.16023e-11
1.02169e-05
4.96134e-11
1.02169e-05
5.72044e-11
1.02169e-05
6.59447e-11
7.21448e-11
1.22857e-05
-1.82196e-11
1.22857e-05
-1.963e-11
1.22857e-05
-1.988e-11
1.22857e-05
-1.88607e-11
1.22857e-05
-1.69267e-11
1.22857e-05
-1.41608e-11
1.22857e-05
-1.06444e-11
1.22857e-05
-6.51012e-12
1.22857e-05
-1.86791e-12
1.22857e-05
3.21456e-12
1.22857e-05
8.71769e-12
1.22856e-05
1.46646e-11
1.22856e-05
2.11004e-11
1.22856e-05
2.80539e-11
1.22856e-05
3.54984e-11
1.22856e-05
4.32993e-11
1.22856e-05
5.11743e-11
1.22856e-05
5.86703e-11
1.22856e-05
6.74588e-11
7.40129e-11
1.44512e-05
-8.90223e-12
1.44512e-05
-1.01912e-11
1.44512e-05
-1.0645e-11
1.44512e-05
-9.75251e-12
1.44512e-05
-8.21356e-12
1.44512e-05
-6.06565e-12
1.44512e-05
-3.3411e-12
1.44512e-05
-1.05093e-13
1.44511e-05
3.58992e-12
1.44511e-05
7.71751e-12
1.44511e-05
1.22819e-11
1.44511e-05
1.73212e-11
1.44511e-05
2.28883e-11
1.44511e-05
2.90192e-11
1.44511e-05
3.56973e-11
1.44511e-05
4.28192e-11
1.44511e-05
5.01404e-11
1.44511e-05
5.72637e-11
1.44511e-05
6.5919e-11
7.27879e-11
1.67219e-05
1.89532e-12
1.67219e-05
7.98983e-13
1.67219e-05
2.06148e-13
1.67219e-05
1.04155e-12
1.67219e-05
2.1888e-12
1.67219e-05
3.64131e-12
1.67219e-05
5.41923e-12
1.67219e-05
7.53044e-12
1.67219e-05
9.99015e-12
1.67219e-05
1.28259e-11
1.67218e-05
1.60787e-11
1.67218e-05
1.981e-11
1.67218e-05
2.40891e-11
1.67218e-05
2.89713e-11
1.67218e-05
3.44668e-11
1.67218e-05
4.05227e-11
1.67219e-05
4.69694e-11
1.67219e-05
5.34994e-11
1.67219e-05
6.18739e-11
6.89818e-11
1.91037e-05
1.32109e-11
1.91037e-05
1.23427e-11
1.91037e-05
1.16416e-11
1.91037e-05
1.24579e-11
1.91037e-05
1.32299e-11
1.91037e-05
1.39623e-11
1.91037e-05
1.47267e-11
1.91037e-05
1.56023e-11
1.91037e-05
1.66743e-11
1.91037e-05
1.80293e-11
1.91037e-05
1.97534e-11
1.91037e-05
2.19366e-11
1.91037e-05
2.46697e-11
1.91037e-05
2.80333e-11
1.91037e-05
3.20792e-11
1.91037e-05
3.68178e-11
1.91037e-05
4.21756e-11
1.91037e-05
4.79514e-11
1.91037e-05
5.59249e-11
6.31768e-11
2.15998e-05
2.40541e-11
2.15998e-05
2.34227e-11
2.15998e-05
2.26003e-11
2.15998e-05
2.33943e-11
2.15998e-05
2.37992e-11
2.15998e-05
2.38265e-11
2.15998e-05
2.35882e-11
2.15998e-05
2.32298e-11
2.15998e-05
2.29017e-11
2.15997e-05
2.27462e-11
2.15997e-05
2.28945e-11
2.15997e-05
2.34652e-11
2.15997e-05
2.45706e-11
2.15997e-05
2.63173e-11
2.15998e-05
2.8804e-11
2.15998e-05
3.21133e-11
2.15998e-05
3.62752e-11
2.15998e-05
4.12059e-11
2.15998e-05
4.86772e-11
5.60007e-11
2.42106e-05
3.34558e-11
2.42106e-05
3.30515e-11
2.42106e-05
3.2045e-11
2.42105e-05
3.27637e-11
2.42105e-05
3.27937e-11
2.42105e-05
3.21636e-11
2.42105e-05
3.10066e-11
2.42105e-05
2.9524e-11
2.42105e-05
2.79196e-11
2.42105e-05
2.63811e-11
2.42105e-05
2.50756e-11
2.42105e-05
2.41451e-11
2.42105e-05
2.37162e-11
2.42105e-05
2.39172e-11
2.42105e-05
2.48907e-11
2.42105e-05
2.67936e-11
2.42105e-05
2.97593e-11
2.42105e-05
3.38299e-11
2.42105e-05
4.07332e-11
4.80676e-11
2.69335e-05
4.05346e-11
2.69335e-05
4.02975e-11
2.69335e-05
3.90174e-11
2.69335e-05
3.95565e-11
2.69335e-05
3.91961e-11
2.69335e-05
3.79876e-11
2.69335e-05
3.60677e-11
2.69335e-05
3.36728e-11
2.69335e-05
3.10422e-11
2.69335e-05
2.83924e-11
2.69335e-05
2.59097e-11
2.69335e-05
2.37474e-11
2.69335e-05
2.20367e-11
2.69335e-05
2.09189e-11
2.69335e-05
2.05708e-11
2.69335e-05
2.12157e-11
2.69335e-05
2.30853e-11
2.69335e-05
2.63447e-11
2.69335e-05
3.26637e-11
3.99309e-11
2.97634e-05
4.45284e-11
2.97634e-05
4.43437e-11
2.97634e-05
4.26976e-11
2.97634e-05
4.29207e-11
2.97634e-05
4.2163e-11
2.97634e-05
4.04937e-11
2.97634e-05
3.80403e-11
2.97634e-05
3.50404e-11
2.97634e-05
3.17435e-11
2.97634e-05
2.83727e-11
2.97634e-05
2.51148e-11
2.97634e-05
2.21178e-11
2.97634e-05
1.95074e-11
2.97634e-05
1.74278e-11
2.97634e-05
1.60735e-11
2.97634e-05
1.57134e-11
2.97634e-05
1.66644e-11
2.97634e-05
1.92046e-11
2.97634e-05
2.49542e-11
3.20956e-11
3.26923e-05
4.48262e-11
3.26923e-05
4.45642e-11
3.26923e-05
4.24727e-11
3.26923e-05
4.22566e-11
3.26923e-05
4.1138e-11
3.26923e-05
3.91855e-11
3.26923e-05
3.64951e-11
3.26923e-05
3.32742e-11
3.26923e-05
2.9754e-11
3.26923e-05
2.61366e-11
3.26923e-05
2.25885e-11
3.26923e-05
1.92388e-11
3.26923e-05
1.61995e-11
3.26923e-05
1.36053e-11
3.26923e-05
1.16433e-11
3.26923e-05
1.05985e-11
3.26923e-05
1.08557e-11
3.26923e-05
1.28053e-11
3.26923e-05
1.80184e-11
2.50423e-11
3.57097e-05
4.1062e-11
3.57097e-05
4.0599e-11
3.57097e-05
3.80451e-11
3.57097e-05
3.73525e-11
3.57097e-05
3.59958e-11
3.57097e-05
3.40157e-11
3.57097e-05
3.14444e-11
3.57097e-05
2.8433e-11
3.57097e-05
2.51625e-11
3.57097e-05
2.17963e-11
3.57097e-05
1.84689e-11
3.57097e-05
1.52809e-11
3.57097e-05
1.23199e-11
3.57097e-05
9.69375e-12
3.57097e-05
7.55088e-12
3.57097e-05
6.16563e-12
3.57097e-05
5.9899e-12
3.57097e-05
7.52853e-12
3.57097e-05
1.22624e-11
1.91316e-11
3.88028e-05
3.32824e-11
3.88028e-05
3.24934e-11
3.88028e-05
2.96199e-11
3.88028e-05
2.85752e-11
3.88028e-05
2.72375e-11
3.88028e-05
2.55554e-11
3.88028e-05
2.34734e-11
3.88029e-05
2.10806e-11
3.88029e-05
1.8494e-11
3.88029e-05
1.58301e-11
3.88029e-05
1.31907e-11
3.88029e-05
1.06378e-11
3.88029e-05
8.21182e-12
3.88029e-05
5.99036e-12
3.88029e-05
4.10027e-12
3.88029e-05
2.75384e-12
3.88029e-05
2.3677e-12
3.88029e-05
3.59803e-12
3.88029e-05
7.92304e-12
1.45587e-11
4.1957e-05
2.2137e-11
4.1957e-05
2.10643e-11
4.1957e-05
1.82285e-11
4.1957e-05
1.7178e-11
4.1957e-05
1.62071e-11
4.1957e-05
1.51239e-11
4.19571e-05
1.38213e-11
4.19571e-05
1.23452e-11
4.19571e-05
1.07587e-11
4.19571e-05
9.11876e-12
4.19571e-05
7.47759e-12
4.19571e-05
5.87344e-12
4.19571e-05
4.33908e-12
4.19571e-05
2.90299e-12
4.19571e-05
1.59313e-12
4.19571e-05
5.69016e-13
4.19571e-05
2.37046e-13
4.19571e-05
1.28104e-12
4.19571e-05
5.20275e-12
1.11303e-11
4.5156e-05
9.27874e-12
4.5156e-05
8.33257e-12
4.5156e-05
6.45462e-12
4.5156e-05
5.84341e-12
4.5156e-05
5.4699e-12
4.5156e-05
5.08687e-12
4.5156e-05
4.62766e-12
4.5156e-05
4.11714e-12
4.5156e-05
3.56454e-12
4.51561e-05
2.98431e-12
4.51561e-05
2.4094e-12
4.51561e-05
1.84703e-12
4.51561e-05
1.28616e-12
4.51561e-05
7.49774e-13
4.51561e-05
2.47041e-13
4.51561e-05
-1.86891e-13
4.51561e-05
-3.1105e-13
4.51561e-05
3.87462e-13
4.51561e-05
3.26814e-12
8.39724e-12
4.83823e-05
4.83823e-05
4.83823e-05
4.83823e-05
4.83823e-05
4.83823e-05
4.83823e-05
4.83823e-05
4.83823e-05
4.83823e-05
4.83823e-05
4.83823e-05
4.83823e-05
4.83823e-05
4.83823e-05
4.83823e-05
4.83823e-05
4.83823e-05
4.83823e-05
)
;

boundaryField
{
    movingWall
    {
        type            calculated;
        value           uniform 0;
    }
    bottomWall
    {
        type            calculated;
        value           uniform 0;
    }
    leftSide
    {
        type            calculated;
        value           nonuniform List<scalar> 
20
(
-8.86175e-07
-2.66732e-06
-4.47469e-06
-6.32509e-06
-8.23437e-06
-1.0217e-05
-1.22857e-05
-1.44512e-05
-1.67219e-05
-1.91038e-05
-2.15998e-05
-2.42106e-05
-2.69335e-05
-2.97634e-05
-3.26923e-05
-3.57097e-05
-3.88028e-05
-4.1957e-05
-4.5156e-05
-4.83823e-05
)
;
    }
    rightSide
    {
        type            calculated;
        value           nonuniform List<scalar> 
20
(
8.86171e-07
2.66731e-06
4.47466e-06
6.32505e-06
8.23432e-06
1.02169e-05
1.22856e-05
1.44511e-05
1.67219e-05
1.91037e-05
2.15998e-05
2.42105e-05
2.69335e-05
2.97634e-05
3.26923e-05
3.57097e-05
3.88029e-05
4.19571e-05
4.51561e-05
4.83823e-05
)
;
    }
    frontAndBack
    {
        type            empty;
        value           nonuniform 0();
    }
}


// ************************************************************************* //
