/*--------------------------------*- C++ -*----------------------------------*\
| =========                 |                                                 |
| \\      /  F ield         | OpenFOAM: The Open Source CFD Toolbox           |
|  \\    /   O peration     | Version:  v1906                                 |
|   \\  /    A nd           | Web:      www.OpenFOAM.com                      |
|    \\/     M anipulation  |                                                 |
\*---------------------------------------------------------------------------*/
FoamFile
{
    version     2.0;
    format      ascii;
    class       volVectorField;
    location    "0.2";
    object      U;
}
// * * * * * * * * * * * * * * * * * * * * * * * * * * * * * * * * * * * * * //

dimensions      [0 1 -1 0 0 0 0];


internalField   nonuniform List<vector> 
400
(
(0.0177236 -7.98866e-08 0)
(0.0177237 -6.97715e-08 0)
(0.0177239 -5.86804e-08 0)
(0.017724 -5.04458e-08 0)
(0.0177241 -4.33216e-08 0)
(0.0177242 -3.61798e-08 0)
(0.0177242 -2.85333e-08 0)
(0.0177243 -2.08068e-08 0)
(0.0177243 -1.33042e-08 0)
(0.0177244 -6.17746e-09 0)
(0.0177244 6.00395e-10 0)
(0.0177243 7.1302e-09 0)
(0.0177243 1.36621e-08 0)
(0.0177243 2.04292e-08 0)
(0.0177242 2.75724e-08 0)
(0.0177242 3.52668e-08 0)
(0.0177241 4.40533e-08 0)
(0.0177239 5.73726e-08 0)
(0.0177237 8.43795e-08 0)
(0.0177235 1.22141e-07 0)
(0.0533465 -2.50091e-07 0)
(0.0533467 -2.52799e-07 0)
(0.0533469 -2.23128e-07 0)
(0.0533471 -1.9934e-07 0)
(0.0533473 -1.74264e-07 0)
(0.0533475 -1.47393e-07 0)
(0.0533476 -1.18019e-07 0)
(0.0533477 -8.76399e-08 0)
(0.0533478 -5.71782e-08 0)
(0.0533478 -2.72013e-08 0)
(0.0533478 2.30486e-09 0)
(0.0533478 3.16722e-08 0)
(0.0533478 6.14392e-08 0)
(0.0533477 9.23685e-08 0)
(0.0533476 1.25297e-07 0)
(0.0533474 1.6109e-07 0)
(0.0533472 2.01173e-07 0)
(0.053347 2.51521e-07 0)
(0.0533466 3.3768e-07 0)
(0.0533463 4.01339e-07 0)
(0.0894938 -4.44057e-07 0)
(0.0894939 -4.5155e-07 0)
(0.0894941 -4.21415e-07 0)
(0.0894943 -3.86603e-07 0)
(0.0894944 -3.4384e-07 0)
(0.0894946 -2.93799e-07 0)
(0.0894947 -2.37605e-07 0)
(0.0894948 -1.77836e-07 0)
(0.0894948 -1.16454e-07 0)
(0.0894949 -5.44286e-08 0)
(0.0894949 8.00621e-09 0)
(0.0894949 7.13134e-08 0)
(0.0894948 1.36482e-07 0)
(0.0894947 2.04681e-07 0)
(0.0894946 2.77087e-07 0)
(0.0894944 3.54694e-07 0)
(0.0894942 4.38394e-07 0)
(0.0894939 5.30153e-07 0)
(0.0894936 6.57118e-07 0)
(0.0894933 7.51875e-07 0)
(0.126502 -5.62585e-07 0)
(0.126502 -5.81501e-07 0)
(0.126502 -5.57935e-07 0)
(0.126502 -5.22059e-07 0)
(0.126502 -4.70176e-07 0)
(0.126502 -4.05221e-07 0)
(0.126502 -3.29788e-07 0)
(0.126502 -2.47261e-07 0)
(0.126502 -1.60568e-07 0)
(0.126502 -7.1269e-08 0)
(0.126502 2.03758e-08 0)
(0.126502 1.14885e-07 0)
(0.126502 2.13332e-07 0)
(0.126502 3.17006e-07 0)
(0.126502 4.26784e-07 0)
(0.126502 5.42711e-07 0)
(0.126502 6.63617e-07 0)
(0.126502 7.86837e-07 0)
(0.126501 9.38788e-07 0)
(0.126501 1.0431e-06 0)
(0.164688 -6.00741e-07 0)
(0.164687 -6.25399e-07 0)
(0.164687 -6.11626e-07 0)
(0.164688 -5.79616e-07 0)
(0.164688 -5.26457e-07 0)
(0.164688 -4.55881e-07 0)
(0.164688 -3.71006e-07 0)
(0.164688 -2.7579e-07 0)
(0.164688 -1.73579e-07 0)
(0.164688 -6.6338e-08 0)
(0.164688 4.53676e-08 0)
(0.164687 1.62031e-07 0)
(0.164687 2.84878e-07 0)
(0.164687 4.15126e-07 0)
(0.164687 5.52881e-07 0)
(0.164687 6.96703e-07 0)
(0.164687 8.42847e-07 0)
(0.164687 9.85094e-07 0)
(0.164687 1.15112e-06 0)
(0.164686 1.26471e-06 0)
(0.20434 -5.59079e-07 0)
(0.20434 -5.87106e-07 0)
(0.20434 -5.82384e-07 0)
(0.20434 -5.55515e-07 0)
(0.20434 -5.06236e-07 0)
(0.20434 -4.37778e-07 0)
(0.20434 -3.52838e-07 0)
(0.20434 -2.55372e-07 0)
(0.204339 -1.48689e-07 0)
(0.204339 -3.47905e-08 0)
(0.204339 8.56336e-08 0)
(0.204339 2.12886e-07 0)
(0.204339 3.47998e-07 0)
(0.204339 4.92014e-07 0)
(0.204339 6.44709e-07 0)
(0.204339 8.0349e-07 0)
(0.204339 9.6291e-07 0)
(0.204339 1.11416e-06 0)
(0.204339 1.28767e-06 0)
(0.204339 1.40873e-06 0)
(0.245714 -4.48384e-07 0)
(0.245714 -4.76866e-07 0)
(0.245714 -4.79221e-07 0)
(0.245714 -4.57044e-07 0)
(0.245714 -4.14403e-07 0)
(0.245713 -3.53449e-07 0)
(0.245713 -2.76244e-07 0)
(0.245713 -1.86067e-07 0)
(0.245713 -8.55987e-08 0)
(0.245713 2.35385e-08 0)
(0.245713 1.40811e-07 0)
(0.245713 2.66509e-07 0)
(0.245713 4.01397e-07 0)
(0.245713 5.46094e-07 0)
(0.245713 7.0025e-07 0)
(0.245713 8.61003e-07 0)
(0.245713 1.02238e-06 0)
(0.245713 1.17487e-06 0)
(0.245713 1.35122e-06 0)
(0.245713 1.47932e-06 0)
(0.289024 -2.81446e-07 0)
(0.289024 -3.08573e-07 0)
(0.289024 -3.15841e-07 0)
(0.289024 -2.97065e-07 0)
(0.289024 -2.62213e-07 0)
(0.289023 -2.12413e-07 0)
(0.289023 -1.48933e-07 0)
(0.289023 -7.38648e-08 0)
(0.289023 1.11399e-08 0)
(0.289023 1.0515e-07 0)
(0.289023 2.08046e-07 0)
(0.289023 3.20424e-07 0)
(0.289023 4.43112e-07 0)
(0.289023 5.76521e-07 0)
(0.289023 7.20125e-07 0)
(0.289023 8.71564e-07 0)
(0.289023 1.02539e-06 0)
(0.289023 1.17285e-06 0)
(0.289023 1.3482e-06 0)
(0.289023 1.48297e-06 0)
(0.334439 -7.54076e-08 0)
(0.334438 -9.94368e-08 0)
(0.334438 -1.10102e-07 0)
(0.334438 -9.30497e-08 0)
(0.334438 -6.61778e-08 0)
(0.334438 -2.98248e-08 0)
(0.334437 1.58017e-08 0)
(0.334437 7.01022e-08 0)
(0.334437 1.32698e-07 0)
(0.334437 2.03579e-07 0)
(0.334437 2.83188e-07 0)
(0.334437 3.72562e-07 0)
(0.334437 4.72889e-07 0)
(0.334437 5.84916e-07 0)
(0.334437 7.08336e-07 0)
(0.334437 8.41551e-07 0)
(0.334437 9.80444e-07 0)
(0.334437 1.11796e-06 0)
(0.334437 1.28902e-06 0)
(0.334437 1.42957e-06 0)
(0.382075 1.50714e-07 0)
(0.382075 1.31134e-07 0)
(0.382075 1.18128e-07 0)
(0.382074 1.34622e-07 0)
(0.382074 1.53773e-07 0)
(0.382074 1.7558e-07 0)
(0.382074 2.01048e-07 0)
(0.382073 2.31147e-07 0)
(0.382073 2.66922e-07 0)
(0.382073 3.09472e-07 0)
(0.382073 3.59965e-07 0)
(0.382073 4.19885e-07 0)
(0.382073 4.9086e-07 0)
(0.382073 5.74251e-07 0)
(0.382073 6.70582e-07 0)
(0.382073 7.79365e-07 0)
(0.382073 8.98203e-07 0)
(0.382073 1.02202e-06 0)
(0.382073 1.18619e-06 0)
(0.382074 1.33048e-06 0)
(0.431997 3.77603e-07 0)
(0.431996 3.62469e-07 0)
(0.431996 3.47472e-07 0)
(0.431996 3.63719e-07 0)
(0.431996 3.75447e-07 0)
(0.431996 3.82745e-07 0)
(0.431995 3.87628e-07 0)
(0.431995 3.9249e-07 0)
(0.431995 3.99775e-07 0)
(0.431995 4.11749e-07 0)
(0.431995 4.30473e-07 0)
(0.431995 4.57913e-07 0)
(0.431995 4.96133e-07 0)
(0.431995 5.47145e-07 0)
(0.431995 6.12577e-07 0)
(0.431995 6.93356e-07 0)
(0.431995 7.88996e-07 0)
(0.431995 8.96514e-07 0)
(0.431995 1.05155e-06 0)
(0.431996 1.19758e-06 0)
(0.484212 5.8535e-07 0)
(0.484211 5.74663e-07 0)
(0.484211 5.5668e-07 0)
(0.484211 5.7209e-07 0)
(0.484211 5.76407e-07 0)
(0.484211 5.69984e-07 0)
(0.484211 5.55422e-07 0)
(0.48421 5.36275e-07 0)
(0.48421 5.16161e-07 0)
(0.48421 4.98393e-07 0)
(0.48421 4.85933e-07 0)
(0.48421 4.81334e-07 0)
(0.48421 4.87036e-07 0)
(0.48421 5.05577e-07 0)
(0.48421 5.39578e-07 0)
(0.48421 5.91449e-07 0)
(0.48421 6.62675e-07 0)
(0.484211 7.52659e-07 0)
(0.484211 8.96585e-07 0)
(0.484211 1.04348e-06 0)
(0.538671 7.55111e-07 0)
(0.53867 7.48526e-07 0)
(0.53867 7.25809e-07 0)
(0.53867 7.38736e-07 0)
(0.53867 7.35297e-07 0)
(0.53867 7.16379e-07 0)
(0.53867 6.84777e-07 0)
(0.53867 6.44896e-07 0)
(0.53867 6.01122e-07 0)
(0.53867 5.57528e-07 0)
(0.538669 5.17777e-07 0)
(0.538669 4.84994e-07 0)
(0.53867 4.61912e-07 0)
(0.53867 4.51342e-07 0)
(0.53867 4.56522e-07 0)
(0.53867 4.81164e-07 0)
(0.53867 5.2879e-07 0)
(0.53867 6.01551e-07 0)
(0.53867 7.33588e-07 0)
(0.53867 8.80198e-07 0)
(0.595268 8.70115e-07 0)
(0.595268 8.65589e-07 0)
(0.595268 8.36364e-07 0)
(0.595268 8.44291e-07 0)
(0.595268 8.3278e-07 0)
(0.595268 8.03223e-07 0)
(0.595268 7.58277e-07 0)
(0.595268 7.02772e-07 0)
(0.595268 6.41518e-07 0)
(0.595268 5.78925e-07 0)
(0.595268 5.18953e-07 0)
(0.595268 4.64979e-07 0)
(0.595268 4.19774e-07 0)
(0.595268 3.86112e-07 0)
(0.595268 3.67503e-07 0)
(0.595268 3.68813e-07 0)
(0.595268 3.95725e-07 0)
(0.595268 4.53032e-07 0)
(0.595269 5.73693e-07 0)
(0.595269 7.18113e-07 0)
(0.653846 9.15904e-07 0)
(0.653846 9.10691e-07 0)
(0.653846 8.73161e-07 0)
(0.653846 8.73413e-07 0)
(0.653846 8.54095e-07 0)
(0.653846 8.16769e-07 0)
(0.653846 7.63737e-07 0)
(0.653846 6.9943e-07 0)
(0.653846 6.28765e-07 0)
(0.653846 5.56169e-07 0)
(0.653846 4.85455e-07 0)
(0.653846 4.1963e-07 0)
(0.653846 3.61012e-07 0)
(0.653846 3.12118e-07 0)
(0.653846 2.76671e-07 0)
(0.653846 2.60588e-07 0)
(0.653846 2.71456e-07 0)
(0.653847 3.15945e-07 0)
(0.653847 4.2538e-07 0)
(0.653847 5.66075e-07 0)
(0.714193 8.82387e-07 0)
(0.714193 8.73967e-07 0)
(0.714193 8.26782e-07 0)
(0.714193 8.1748e-07 0)
(0.714194 7.91995e-07 0)
(0.714194 7.51313e-07 0)
(0.714194 6.96759e-07 0)
(0.714194 6.31925e-07 0)
(0.714194 5.61273e-07 0)
(0.714194 4.88881e-07 0)
(0.714194 4.17927e-07 0)
(0.714194 3.50435e-07 0)
(0.714194 2.87988e-07 0)
(0.714194 2.33051e-07 0)
(0.714194 1.89641e-07 0)
(0.714194 1.63797e-07 0)
(0.714195 1.63421e-07 0)
(0.714195 1.9719e-07 0)
(0.714195 2.96285e-07 0)
(0.714195 4.36024e-07 0)
(0.776056 7.63189e-07 0)
(0.776056 7.50411e-07 0)
(0.776056 6.94336e-07 0)
(0.776056 6.76223e-07 0)
(0.776057 6.48161e-07 0)
(0.776057 6.1004e-07 0)
(0.776057 5.61513e-07 0)
(0.776057 5.05265e-07 0)
(0.776057 4.44682e-07 0)
(0.776057 3.82678e-07 0)
(0.776057 3.21243e-07 0)
(0.776057 2.61686e-07 0)
(0.776058 2.05553e-07 0)
(0.776058 1.54981e-07 0)
(0.776058 1.12566e-07 0)
(0.776058 8.35082e-08 0)
(0.776058 7.71655e-08 0)
(0.776058 1.04663e-07 0)
(0.776058 1.94892e-07 0)
(0.776058 3.28321e-07 0)
(0.83914 5.68772e-07 0)
(0.83914 5.46245e-07 0)
(0.83914 4.86567e-07 0)
(0.83914 4.64179e-07 0)
(0.839141 4.39708e-07 0)
(0.839141 4.10817e-07 0)
(0.839141 3.75918e-07 0)
(0.839141 3.36404e-07 0)
(0.839141 2.93956e-07 0)
(0.839142 2.50152e-07 0)
(0.839142 2.0648e-07 0)
(0.839142 1.63852e-07 0)
(0.839142 1.22827e-07 0)
(0.839142 8.47841e-08 0)
(0.839142 5.17561e-08 0)
(0.839142 2.68636e-08 0)
(0.839142 1.84485e-08 0)
(0.839142 4.16146e-08 0)
(0.839142 1.25149e-07 0)
(0.839142 2.60519e-07 0)
(0.903119 3.05049e-07 0)
(0.903119 2.90287e-07 0)
(0.90312 2.38027e-07 0)
(0.90312 2.1951e-07 0)
(0.90312 2.0544e-07 0)
(0.90312 1.90907e-07 0)
(0.903121 1.7388e-07 0)
(0.903121 1.54967e-07 0)
(0.903121 1.34648e-07 0)
(0.903121 1.13326e-07 0)
(0.903121 9.16958e-08 0)
(0.903121 7.03859e-08 0)
(0.903121 4.99311e-08 0)
(0.903121 3.06441e-08 0)
(0.903121 1.23875e-08 0)
(0.903121 -2.73612e-09 0)
(0.903121 -8.00762e-09 0)
(0.903121 1.02059e-08 0)
(0.903121 8.63449e-08 0)
(0.903121 1.98364e-07 0)
(0.967645 9.78914e-08 0)
(0.967645 7.30156e-08 0)
(0.967646 5.62573e-08 0)
(0.967646 4.90617e-08 0)
(0.967646 4.49944e-08 0)
(0.967646 4.14036e-08 0)
(0.967646 3.76575e-08 0)
(0.967646 3.3743e-08 0)
(0.967646 2.91438e-08 0)
(0.967646 2.37411e-08 0)
(0.967646 1.83155e-08 0)
(0.967646 1.34059e-08 0)
(0.967646 8.76645e-09 0)
(0.967646 4.11372e-09 0)
(0.967646 -1.16632e-09 0)
(0.967646 -6.54787e-09 0)
(0.967646 -8.02321e-09 0)
(0.967646 8.04225e-11 0)
(0.967646 3.2541e-08 0)
(0.967646 9.24417e-08 0)
)
;

boundaryField
{
    movingWall
    {
        type            fixedValue;
        value           uniform (1 0 0);
    }
    bottomWall
    {
        type            noSlip;
    }
    leftSide
    {
        type            zeroGradient;
    }
    rightSide
    {
        type            zeroGradient;
    }
    frontAndBack
    {
        type            empty;
    }
}


// ************************************************************************* //
