/*--------------------------------*- C++ -*----------------------------------*\
| =========                 |                                                 |
| \\      /  F ield         | OpenFOAM: The Open Source CFD Toolbox           |
|  \\    /   O peration     | Version:  v1906                                 |
|   \\  /    A nd           | Web:      www.OpenFOAM.com                      |
|    \\/     M anipulation  |                                                 |
\*---------------------------------------------------------------------------*/
FoamFile
{
    version     2.0;
    format      ascii;
    class       surfaceScalarField;
    location    "0.8";
    object      phi;
}
// * * * * * * * * * * * * * * * * * * * * * * * * * * * * * * * * * * * * * //

dimensions      [0 3 -1 0 0 0 0];
oriented        oriented;


internalField   nonuniform List<scalar> 
9440
(
3.88182e-06
9.74045e-09
3.87774e-06
-6.41721e-09
3.87967e-06
-2.99638e-11
3.87566e-06
-4.03285e-08
3.87746e-06
-3.87665e-10
3.8758e-06
-1.12209e-08
3.87916e-06
3.62917e-08
3.8791e-06
-1.6612e-09
3.88063e-06
9.97124e-09
3.8802e-06
-2.90879e-08
3.88138e-06
-5.12258e-09
3.88165e-06
-2.83636e-08
3.88223e-06
-1.02576e-08
3.88254e-06
-2.06775e-08
3.88359e-06
-2.99717e-09
3.88384e-06
-1.41863e-08
3.88356e-06
1.92313e-09
3.87969e-06
-5.96725e-09
3.86596e-06
2.01648e-08
3.43241e-08
3.84295e-06
4.18361e-06
1.19895e-08
4.1871e-06
-9.90958e-09
4.18389e-06
3.18605e-09
4.18527e-06
-4.17108e-08
4.18304e-06
1.83975e-09
4.18443e-06
-1.26045e-08
4.18581e-06
3.49047e-08
4.18642e-06
-2.26979e-09
4.18793e-06
8.46054e-09
4.18529e-06
-2.64426e-08
4.18764e-06
-7.4712e-09
4.18482e-06
-2.55473e-08
4.1873e-06
-1.27426e-08
4.1863e-06
-1.96697e-08
4.18879e-06
-5.49517e-09
4.18583e-06
-1.12259e-08
4.18485e-06
2.90611e-09
4.17438e-06
4.50201e-09
4.16642e-06
2.81286e-08
4.11516e-08
4.15959e-06
4.51807e-06
1.39836e-08
4.5204e-06
-1.22454e-08
4.5189e-06
4.68667e-09
4.51832e-06
-4.11279e-08
4.51855e-06
1.61516e-09
4.51699e-06
-1.10459e-08
4.52189e-06
3.00049e-08
4.51901e-06
6.0869e-10
4.5244e-06
3.06948e-09
4.51838e-06
-2.04216e-08
4.5243e-06
-1.33889e-08
4.51817e-06
-1.94249e-08
4.52408e-06
-1.86457e-08
4.5195e-06
-1.5097e-08
4.5247e-06
-1.06899e-08
4.52029e-06
-6.81715e-09
4.52108e-06
2.11543e-09
4.50854e-06
1.70437e-08
4.50217e-06
3.44959e-08
4.75872e-08
4.49574e-06
4.88084e-06
1.4087e-08
4.88072e-06
-1.21165e-08
4.88212e-06
3.28711e-09
4.87887e-06
-3.78876e-08
4.88178e-06
-1.288e-09
4.87776e-06
-7.02368e-09
4.88463e-06
2.31303e-08
4.88043e-06
4.81308e-09
4.88629e-06
-2.7957e-09
4.88144e-06
-1.55725e-08
4.88587e-06
-1.78148e-08
4.88459e-06
-1.81503e-08
4.8869e-06
-2.09527e-08
4.88668e-06
-1.48748e-08
4.88662e-06
-1.06347e-08
4.883e-06
-3.19276e-09
4.87432e-06
1.07896e-08
4.86594e-06
2.54275e-08
4.86178e-06
3.86539e-08
5.11956e-08
4.85817e-06
5.27128e-06
1.34536e-08
5.26991e-06
-1.07442e-08
5.27302e-06
1.72515e-10
5.26822e-06
-3.30841e-08
5.27261e-06
-5.683e-09
5.26768e-06
-2.08862e-09
5.27489e-06
1.59188e-08
5.27122e-06
8.48741e-09
5.27592e-06
-7.50302e-09
5.27461e-06
-1.42634e-08
5.27654e-06
-1.97362e-08
5.27747e-06
-1.9083e-08
5.27824e-06
-2.1721e-08
5.27772e-06
-1.43626e-08
5.27558e-06
-8.48712e-09
5.26842e-06
3.96148e-09
5.25907e-06
2.01387e-08
5.25352e-06
3.09786e-08
5.25029e-06
4.18846e-08
5.31224e-08
5.24836e-06
5.69234e-06
1.25693e-08
5.69004e-06
-8.44139e-09
5.69437e-06
-4.15553e-09
5.6889e-06
-2.76111e-08
5.69326e-06
-1.00491e-08
5.6896e-06
1.57563e-09
5.69436e-06
1.11549e-08
5.695e-06
7.84523e-09
5.69585e-06
-8.3501e-09
5.69798e-06
-1.63937e-08
5.69873e-06
-2.0489e-08
5.69954e-06
-1.98874e-08
5.69952e-06
-2.16998e-08
5.6976e-06
-1.24486e-08
5.6905e-06
-1.38043e-09
5.68149e-06
1.29688e-08
5.67631e-06
2.53215e-08
5.6724e-06
3.48806e-08
5.67007e-06
4.42149e-08
5.42573e-08
5.66894e-06
6.14688e-06
1.15556e-08
6.14392e-06
-5.48111e-09
6.14877e-06
-8.99932e-09
6.14369e-06
-2.25301e-08
6.14654e-06
-1.28996e-08
6.14578e-06
2.33577e-09
6.14704e-06
9.89311e-09
6.15132e-06
3.56772e-09
6.15156e-06
-8.5919e-09
6.15291e-06
-1.77449e-08
6.1545e-06
-2.2083e-08
6.15459e-06
-1.99715e-08
6.15204e-06
-1.9154e-08
6.14619e-06
-6.59254e-09
6.13694e-06
7.86522e-09
6.13194e-06
1.79729e-08
6.12819e-06
2.90623e-08
6.12535e-06
3.77268e-08
6.12343e-06
4.61294e-08
5.49558e-08
6.12274e-06
6.63764e-06
1.04772e-08
6.63441e-06
-2.25416e-09
6.63853e-06
-1.3119e-08
6.63528e-06
-1.92813e-08
6.63553e-06
-1.31468e-08
6.63826e-06
-3.89875e-10
6.63845e-06
9.69666e-09
6.64171e-06
3.16014e-10
6.64471e-06
-1.15963e-08
6.64491e-06
-1.79472e-08
6.6454e-06
-2.25702e-08
6.64383e-06
-1.84061e-08
6.63781e-06
-1.31309e-08
6.62975e-06
1.46609e-09
6.62371e-06
1.39093e-08
6.61977e-06
2.19058e-08
6.6171e-06
3.1734e-08
6.61469e-06
4.01444e-08
6.61305e-06
4.77616e-08
5.54036e-08
6.61261e-06
7.16748e-06
9.42808e-09
7.16459e-06
6.38565e-10
7.16609e-06
-1.4625e-08
7.16654e-06
-1.97321e-08
7.1648e-06
-1.14004e-08
7.16804e-06
-3.63568e-09
7.17093e-06
6.81205e-09
7.17193e-06
-6.8648e-10
7.17471e-06
-1.43728e-08
7.17618e-06
-1.9421e-08
7.17433e-06
-2.07154e-08
7.17056e-06
-1.46394e-08
7.16235e-06
-4.91779e-09
7.15545e-06
8.35837e-09
7.15082e-06
1.85403e-08
7.14758e-06
2.51494e-08
7.14534e-06
3.39691e-08
7.14327e-06
4.22138e-08
7.14192e-06
4.91157e-08
5.57564e-08
7.14157e-06
7.73959e-06
8.43871e-09
7.73743e-06
2.80009e-09
7.73659e-06
-1.3781e-08
7.73935e-06
-2.2493e-08
7.73838e-06
-1.04269e-08
7.73915e-06
-4.40883e-09
7.7445e-06
1.4648e-09
7.7459e-06
-2.09324e-09
7.74638e-06
-1.48534e-08
7.74698e-06
-2.00135e-08
7.74314e-06
-1.68844e-08
7.7353e-06
-6.79149e-09
7.72851e-06
1.86812e-09
7.72469e-06
1.21751e-08
7.72115e-06
2.20876e-08
7.71803e-06
2.82697e-08
7.71588e-06
3.61141e-08
7.71421e-06
4.38833e-08
7.71309e-06
5.02347e-08
5.60451e-08
7.7128e-06
8.35739e-06
7.51046e-09
8.35639e-06
3.80018e-09
8.35415e-06
-1.15449e-08
8.35614e-06
-2.44791e-08
8.35819e-06
-1.24752e-08
8.35737e-06
-3.59234e-09
8.3615e-06
-2.65992e-09
8.36533e-06
-5.92886e-09
8.36374e-06
-1.32591e-08
8.36075e-06
-1.70302e-08
8.35591e-06
-1.2039e-08
8.34914e-06
-2.81819e-11
8.34328e-06
7.73607e-09
8.33995e-06
1.55053e-08
8.33728e-06
2.47505e-08
8.33434e-06
3.12139e-08
8.33226e-06
3.81964e-08
8.3309e-06
4.52382e-08
8.33e-06
5.11381e-08
5.62457e-08
8.3298e-06
9.02462e-06
6.53673e-09
9.02494e-06
3.4794e-09
9.02259e-06
-9.1971e-09
9.02106e-06
-2.29484e-08
9.0264e-06
-1.78147e-08
9.027e-06
-4.18777e-09
9.02769e-06
-3.35107e-09
9.03128e-06
-9.51878e-09
9.0302e-06
-1.21791e-08
9.02334e-06
-1.01733e-08
9.0172e-06
-5.89458e-09
9.01313e-06
4.03656e-09
9.00863e-06
1.22407e-08
9.00517e-06
1.89606e-08
9.00273e-06
2.71957e-08
9.0001e-06
3.38453e-08
8.99815e-06
4.01449e-08
8.99695e-06
4.64322e-08
8.99627e-06
5.18213e-08
5.63187e-08
8.9962e-06
9.74518e-06
5.45976e-09
9.74582e-06
2.84211e-09
9.74506e-06
-8.44048e-09
9.74069e-06
-1.85734e-08
9.74535e-06
-2.24817e-08
9.74976e-06
-8.59316e-09
9.74884e-06
-2.43392e-09
9.74839e-06
-9.07138e-09
9.74787e-06
-1.16541e-08
9.74172e-06
-4.02695e-09
9.73444e-06
1.38806e-09
9.7304e-06
8.07438e-09
9.72716e-06
1.54797e-08
9.72394e-06
2.21816e-08
9.72152e-06
2.96148e-08
9.71924e-06
3.61257e-08
9.71747e-06
4.1918e-08
9.71639e-06
4.75065e-08
9.7159e-06
5.23157e-08
5.62369e-08
9.71598e-06
1.05233e-05
4.25213e-09
1.05233e-05
2.87668e-09
1.0525e-05
-1.0167e-08
1.05203e-05
-1.39348e-08
1.05203e-05
-2.2457e-08
1.05271e-05
-1.53491e-08
1.05283e-05
-3.63883e-09
1.05233e-05
-4.12943e-09
1.05194e-05
-7.75686e-09
1.05162e-05
-7.99516e-10
1.0511e-05
6.59084e-09
1.05065e-05
1.26252e-08
1.05032e-05
1.87835e-08
1.05004e-05
2.49459e-08
1.0498e-05
3.19603e-08
1.0496e-05
3.81386e-08
1.04945e-05
4.3458e-08
1.04935e-05
4.85027e-08
1.04932e-05
5.26399e-08
5.59954e-08
1.04934e-05
1.13634e-05
2.98168e-09
1.13627e-05
3.60258e-09
1.13656e-05
-1.30896e-08
1.13637e-05
-1.19753e-08
1.13594e-05
-1.82105e-08
1.13631e-05
-1.90201e-08
1.13676e-05
-8.17417e-09
1.13635e-05
-5.42129e-12
1.1356e-05
-2.21188e-10
1.13519e-05
3.23291e-09
1.1349e-05
9.5799e-09
1.13452e-05
1.63762e-08
1.13417e-05
2.22474e-08
1.13389e-05
2.77477e-08
1.13368e-05
3.41121e-08
1.1335e-05
3.98974e-08
1.13337e-05
4.47776e-08
1.13329e-05
4.93277e-08
1.13327e-05
5.28192e-08
5.56038e-08
1.13331e-05
1.22705e-05
1.86082e-09
1.22699e-05
4.15291e-09
1.22717e-05
-1.48686e-08
1.22735e-05
-1.37969e-08
1.22679e-05
-1.25969e-08
1.22659e-05
-1.69926e-08
1.22691e-05
-1.142e-08
1.22696e-05
-4.59358e-10
1.22632e-05
6.15214e-09
1.22569e-05
9.52912e-09
1.22533e-05
1.31635e-08
1.22507e-05
1.90367e-08
1.22478e-05
2.514e-08
1.22449e-05
3.06157e-08
1.22429e-05
3.61331e-08
1.22413e-05
4.14755e-08
1.22402e-05
4.59059e-08
1.22396e-05
4.99393e-08
1.22395e-05
5.28768e-08
5.50881e-08
1.224e-05
1.32498e-05
1.0233e-09
1.32506e-05
3.33026e-09
1.32497e-05
-1.39501e-08
1.32531e-05
-1.71889e-08
1.32501e-05
-9.61534e-09
1.32441e-05
-1.10076e-08
1.32421e-05
-9.4198e-09
1.3243e-05
-1.38e-09
1.32416e-05
7.55893e-09
1.32363e-05
1.48125e-08
1.32312e-05
1.82768e-08
1.32283e-05
2.19497e-08
1.3226e-05
2.74524e-08
1.32235e-05
3.3102e-08
1.32215e-05
3.8106e-08
1.32201e-05
4.28832e-08
1.32192e-05
4.68648e-08
1.32188e-05
5.02937e-08
1.32189e-05
5.27788e-08
5.44482e-08
1.32195e-05
1.43074e-05
3.6663e-10
1.43094e-05
1.33964e-09
1.43074e-05
-1.19561e-08
1.43087e-05
-1.852e-08
1.43095e-05
-1.04193e-08
1.43034e-05
-4.90956e-09
1.4297e-05
-3.01329e-09
1.42948e-05
8.75791e-10
1.4295e-05
7.32462e-09
1.4293e-05
1.67897e-08
1.42887e-05
2.26381e-08
1.42847e-05
2.59336e-08
1.42824e-05
2.97682e-08
1.42804e-05
3.5081e-08
1.42786e-05
3.98479e-08
1.42774e-05
4.40993e-08
1.42767e-05
4.76204e-08
1.42765e-05
5.04385e-08
1.42768e-05
5.25242e-08
5.37147e-08
1.42775e-05
1.54496e-05
-2.68215e-10
1.54517e-05
-7.10531e-10
1.54508e-05
-1.1056e-08
1.54489e-05
-1.66008e-08
1.545e-05
-1.15164e-08
1.5447e-05
-1.9067e-09
1.544e-05
3.97212e-09
1.54343e-05
6.56283e-09
1.54325e-05
9.12713e-09
1.54323e-05
1.6943e-08
1.54301e-05
2.48226e-08
1.54265e-05
2.95679e-08
1.54236e-05
3.26573e-08
1.54218e-05
3.69107e-08
1.54204e-05
4.12847e-08
1.54194e-05
4.50908e-08
1.54189e-05
4.81159e-08
1.54189e-05
5.04254e-08
1.54193e-05
5.20866e-08
5.28636e-08
1.54202e-05
1.66831e-05
-8.95361e-10
1.66846e-05
-2.19892e-09
1.66848e-05
-1.12407e-08
1.66819e-05
-1.37806e-08
1.66799e-05
-9.45691e-09
1.66786e-05
-6.7492e-10
1.66744e-05
8.25564e-09
1.66682e-05
1.27054e-08
1.66636e-05
1.37865e-08
1.66623e-05
1.81677e-08
1.66617e-05
2.5463e-08
1.66595e-05
3.17865e-08
1.66567e-05
3.53897e-08
1.66548e-05
3.88539e-08
1.66535e-05
4.25621e-08
1.66528e-05
4.57881e-08
1.66526e-05
4.83607e-08
1.66528e-05
5.02551e-08
1.66534e-05
5.14707e-08
5.18999e-08
1.66543e-05
1.80149e-05
-1.42395e-09
1.80158e-05
-3.05777e-09
1.80159e-05
-1.13551e-08
1.80139e-05
-1.17567e-08
1.80097e-05
-5.28864e-09
1.80072e-05
1.88449e-09
1.80053e-05
1.00773e-08
1.80009e-05
1.71383e-08
1.79956e-05
1.90637e-08
1.79924e-05
2.14242e-08
1.79914e-05
2.64287e-08
1.79904e-05
3.28133e-08
1.79885e-05
3.72177e-08
1.79868e-05
4.06313e-08
1.79856e-05
4.37287e-08
1.7985e-05
4.6338e-08
1.7985e-05
4.83959e-08
1.79854e-05
4.98721e-08
1.79862e-05
5.06728e-08
5.08005e-08
1.79873e-05
1.94529e-05
-1.68437e-09
1.94536e-05
-3.68389e-09
1.94525e-05
-1.03262e-08
1.94509e-05
-1.0142e-08
1.94473e-05
-1.67747e-09
1.94431e-05
6.06341e-09
1.9441e-05
1.21986e-08
1.94388e-05
1.93413e-08
1.94345e-05
2.33462e-08
1.94305e-05
2.54482e-08
1.94284e-05
2.85395e-08
1.94274e-05
3.37652e-08
1.94265e-05
3.82038e-08
1.94254e-05
4.17362e-08
1.94244e-05
4.46747e-08
1.9424e-05
4.67045e-08
1.94242e-05
4.82551e-08
1.94248e-05
4.92914e-08
1.94257e-05
4.96921e-08
4.95585e-08
1.9427e-05
2.10058e-05
-1.67493e-09
2.10062e-05
-4.06173e-09
2.10042e-05
-8.31229e-09
2.10019e-05
-7.89355e-09
2.09994e-05
7.89293e-10
2.09953e-05
1.01886e-08
2.09921e-05
1.54075e-08
2.09903e-05
2.1134e-08
2.09877e-05
2.59398e-08
2.09842e-05
2.89646e-08
2.09814e-05
3.13432e-08
2.09801e-05
3.51095e-08
2.09793e-05
3.89603e-08
2.09788e-05
4.22245e-08
2.09784e-05
4.50945e-08
2.09782e-05
4.68602e-08
2.09786e-05
4.79067e-08
2.09794e-05
4.85269e-08
2.09805e-05
4.85732e-08
4.81627e-08
2.09819e-05
2.26827e-05
-1.46177e-09
2.26825e-05
-3.81894e-09
2.26802e-05
-6.03925e-09
2.2677e-05
-4.70593e-09
2.26747e-05
3.09819e-09
2.26718e-05
1.30536e-08
2.26683e-05
1.89659e-08
2.2666e-05
2.33895e-08
2.26642e-05
2.77688e-08
2.26617e-05
3.14416e-08
2.26592e-05
3.38648e-08
2.26574e-05
3.68683e-08
2.26567e-05
3.96806e-08
2.26564e-05
4.24901e-08
2.26566e-05
4.49392e-08
2.26568e-05
4.66629e-08
2.26574e-05
4.73151e-08
2.26584e-05
4.75421e-08
2.26596e-05
4.73096e-08
4.66307e-08
2.26612e-05
2.44936e-05
-1.0905e-09
2.44926e-05
-2.82255e-09
2.44902e-05
-3.66923e-09
2.44866e-05
-1.08445e-09
2.44839e-05
5.82775e-09
2.44818e-05
1.50659e-08
2.4479e-05
2.18481e-08
2.44764e-05
2.60013e-08
2.44746e-05
2.95645e-08
2.44729e-05
3.3147e-08
2.4471e-05
3.57454e-08
2.44695e-05
3.83704e-08
2.44686e-05
4.05464e-08
2.44686e-05
4.25147e-08
2.44689e-05
4.4587e-08
2.44697e-05
4.59013e-08
2.44705e-05
4.6528e-08
2.44717e-05
4.63132e-08
2.44732e-05
4.58545e-08
4.49742e-08
2.44748e-05
2.6449e-05
-5.67889e-10
2.64475e-05
-1.23615e-09
2.64448e-05
-1.02618e-09
2.64412e-05
2.48771e-09
2.64381e-05
8.93937e-09
2.64362e-05
1.70343e-08
2.64342e-05
2.3843e-08
2.64319e-05
2.83133e-08
2.643e-05
3.13852e-08
2.64286e-05
3.45571e-08
2.64274e-05
3.69436e-08
2.64264e-05
3.94047e-08
2.64258e-05
4.1175e-08
2.64258e-05
4.24916e-08
2.64264e-05
4.39717e-08
2.64275e-05
4.48463e-08
2.64286e-05
4.53873e-08
2.643e-05
4.48818e-08
2.64317e-05
4.41943e-08
4.31785e-08
2.64335e-05
2.85606e-05
1.14506e-10
2.85588e-05
6.38768e-10
2.85557e-05
2.04493e-09
2.85523e-05
5.87966e-09
2.85491e-05
1.2147e-08
2.8547e-05
1.91737e-08
2.85454e-05
2.54047e-08
2.85437e-05
3.00348e-08
2.85421e-05
3.29647e-08
2.85409e-05
3.57294e-08
2.85401e-05
3.77419e-08
2.85396e-05
3.98864e-08
2.85394e-05
4.13949e-08
2.85397e-05
4.21957e-08
2.85405e-05
4.31983e-08
2.85417e-05
4.35925e-08
2.85433e-05
4.38093e-08
2.85449e-05
4.33016e-08
2.85468e-05
4.23206e-08
4.12248e-08
2.85487e-05
3.08409e-05
8.96203e-10
3.08388e-05
2.74724e-09
3.08356e-05
5.25186e-09
3.08322e-05
9.29147e-09
3.08291e-05
1.51764e-08
3.08269e-05
2.13989e-08
3.08254e-05
2.69042e-08
3.08242e-05
3.12592e-08
3.0823e-05
3.41443e-08
3.08222e-05
3.65309e-08
3.08217e-05
3.82478e-08
3.08217e-05
3.9885e-08
3.0822e-05
4.11343e-08
3.08226e-05
4.15755e-08
3.08237e-05
4.21174e-08
3.0825e-05
4.22149e-08
3.08269e-05
4.19206e-08
3.08288e-05
4.14748e-08
3.08308e-05
4.02798e-08
3.91036e-08
3.08329e-05
3.33033e-05
1.74274e-09
3.3301e-05
4.98203e-09
3.32978e-05
8.44533e-09
3.32944e-05
1.27037e-08
3.32916e-05
1.80282e-08
3.32894e-05
2.35194e-08
3.3288e-05
2.83481e-08
3.3287e-05
3.22235e-08
3.32863e-05
3.48847e-08
3.32858e-05
3.69909e-08
3.32857e-05
3.83349e-08
3.32861e-05
3.95195e-08
3.32868e-05
4.04218e-08
3.32878e-05
4.06068e-08
3.32892e-05
4.07027e-08
3.32908e-05
4.05958e-08
3.32928e-05
3.99237e-08
3.3295e-05
3.92818e-08
3.32972e-05
3.81261e-08
3.67837e-08
3.32995e-05
3.59623e-05
2.59588e-09
3.59601e-05
7.20248e-09
3.5957e-05
1.15299e-08
3.59537e-05
1.59884e-08
3.5951e-05
2.07634e-08
3.59489e-05
2.55455e-08
3.59476e-05
2.96448e-08
3.59468e-05
3.30126e-08
3.59465e-05
3.52437e-08
3.59464e-05
3.70574e-08
3.59467e-05
3.80958e-08
3.59474e-05
3.87476e-08
3.59485e-05
3.9344e-08
3.59498e-05
3.92884e-08
3.59516e-05
3.89628e-08
3.59535e-05
3.86703e-08
3.59557e-05
3.77603e-08
3.5958e-05
3.68873e-08
3.59605e-05
3.56629e-08
3.43534e-08
3.59629e-05
3.88336e-05
3.40413e-09
3.88315e-05
9.3307e-09
3.88287e-05
1.43826e-08
3.88256e-05
1.90478e-08
3.88231e-05
2.33196e-08
3.88212e-05
2.74339e-08
3.882e-05
3.08434e-08
3.88194e-05
3.35695e-08
3.88193e-05
3.5349e-08
3.88196e-05
3.67629e-08
3.88202e-05
3.74722e-08
3.88212e-05
3.77262e-08
3.88227e-05
3.78837e-08
3.88244e-05
3.76329e-08
3.88264e-05
3.69571e-08
3.88286e-05
3.64201e-08
3.88309e-05
3.54281e-08
3.88335e-05
3.42899e-08
3.88362e-05
3.30164e-08
3.17022e-08
3.88388e-05
4.19343e-05
4.12659e-09
4.19324e-05
1.126e-08
4.19299e-05
1.69092e-08
4.19271e-05
2.1756e-08
4.19248e-05
2.5627e-08
4.19231e-05
2.9136e-08
4.19221e-05
3.18857e-08
4.19217e-05
3.3984e-08
4.19218e-05
3.52362e-08
4.19223e-05
3.62117e-08
4.19233e-05
3.65087e-08
4.19246e-05
3.6443e-08
4.19263e-05
3.61596e-08
4.19283e-05
3.56148e-08
4.19305e-05
3.47542e-08
4.19331e-05
3.38543e-08
4.19356e-05
3.28861e-08
4.19384e-05
3.15558e-08
4.19411e-05
3.02597e-08
2.87264e-08
4.19441e-05
4.52826e-05
4.72153e-09
4.5281e-05
1.28632e-08
4.52789e-05
1.90077e-08
4.52766e-05
2.3971e-08
4.52747e-05
2.75754e-08
4.52733e-05
3.05456e-08
4.52724e-05
3.27858e-08
4.52721e-05
3.43224e-08
4.52723e-05
3.49781e-08
4.5273e-05
3.54918e-08
4.52742e-05
3.53659e-08
4.52758e-05
3.48477e-08
4.52776e-05
3.42955e-08
4.528e-05
3.32826e-08
4.52824e-05
3.23285e-08
4.52851e-05
3.11585e-08
4.5288e-05
3.00051e-08
4.52909e-05
2.86195e-08
4.5294e-05
2.71727e-08
2.57595e-08
4.5297e-05
4.88982e-05
5.15135e-09
4.8897e-05
1.40142e-08
4.88955e-05
2.0546e-08
4.88939e-05
2.55632e-08
4.88924e-05
2.90241e-08
4.88915e-05
3.15186e-08
4.88909e-05
3.33508e-08
4.88906e-05
3.4632e-08
4.88908e-05
3.47735e-08
4.88916e-05
3.46849e-08
4.88927e-05
3.42388e-08
4.88945e-05
3.30892e-08
4.88965e-05
3.2305e-08
4.88989e-05
3.09035e-08
4.89016e-05
2.95573e-08
4.89044e-05
2.83793e-08
4.89076e-05
2.68376e-08
4.89107e-05
2.54898e-08
4.8914e-05
2.38436e-08
2.25098e-08
4.89173e-05
5.28025e-05
5.37906e-09
5.2802e-05
1.45304e-08
5.28011e-05
2.13685e-08
5.28003e-05
2.63978e-08
5.27995e-05
2.98532e-08
5.2799e-05
3.1948e-08
5.2799e-05
3.33698e-08
5.27993e-05
3.43131e-08
5.27994e-05
3.47069e-08
5.27999e-05
3.41909e-08
5.28008e-05
3.3353e-08
5.28022e-05
3.16472e-08
5.28042e-05
3.03501e-08
5.28063e-05
2.88065e-08
5.2809e-05
2.68516e-08
5.28121e-05
2.52352e-08
5.28157e-05
2.32851e-08
5.28191e-05
2.21215e-08
5.28225e-05
2.04186e-08
1.89206e-08
5.28261e-05
5.70186e-05
5.33954e-09
5.70188e-05
1.43016e-08
5.7019e-05
2.11972e-08
5.70191e-05
2.62147e-08
5.70192e-05
2.98308e-08
5.70193e-05
3.18201e-08
5.70198e-05
3.28647e-08
5.70207e-05
3.34162e-08
5.70219e-05
3.35328e-08
5.7023e-05
3.3085e-08
5.70235e-05
3.28239e-08
5.70238e-05
3.13494e-08
5.70247e-05
2.94122e-08
5.70258e-05
2.77591e-08
5.70273e-05
2.53023e-08
5.70299e-05
2.26652e-08
5.7033e-05
2.02309e-08
5.70369e-05
1.81392e-08
5.70411e-05
1.62475e-08
1.44039e-08
5.70456e-05
6.15713e-05
4.99751e-09
6.15724e-05
1.32124e-08
6.15738e-05
1.97945e-08
6.15754e-05
2.45393e-08
6.1577e-05
2.82542e-08
6.15782e-05
3.06513e-08
6.15788e-05
3.22805e-08
6.15794e-05
3.27646e-08
6.15807e-05
3.22893e-08
6.15825e-05
3.12269e-08
6.15852e-05
3.0094e-08
6.15878e-05
2.87646e-08
6.15907e-05
2.65158e-08
6.15937e-05
2.47557e-08
6.15958e-05
2.32246e-08
6.15976e-05
2.08811e-08
6.15993e-05
1.85154e-08
6.16015e-05
1.59408e-08
6.16039e-05
1.38141e-08
1.15976e-08
6.16067e-05
6.64875e-05
4.32109e-09
6.64897e-05
1.10341e-08
6.64924e-05
1.70435e-08
6.64959e-05
2.10607e-08
6.64995e-05
2.45994e-08
6.65034e-05
2.67939e-08
6.65068e-05
2.88755e-08
6.65095e-05
3.00448e-08
6.65103e-05
3.14903e-08
6.65091e-05
3.24825e-08
6.65069e-05
3.2225e-08
6.65046e-05
3.11182e-08
6.65025e-05
2.86291e-08
6.65012e-05
2.60186e-08
6.65011e-05
2.32887e-08
6.65023e-05
1.97641e-08
6.65044e-05
1.63628e-08
6.65078e-05
1.25733e-08
6.65124e-05
9.14994e-09
5.86662e-09
6.65182e-05
7.17962e-05
3.30948e-09
7.1799e-05
8.16141e-09
7.18032e-05
1.28398e-08
7.18084e-05
1.59202e-08
7.1814e-05
1.89986e-08
7.18198e-05
2.09873e-08
7.18256e-05
2.31077e-08
7.18312e-05
2.44214e-08
7.18368e-05
2.58664e-08
7.18425e-05
2.67857e-08
7.18475e-05
2.72492e-08
7.18514e-05
2.72396e-08
7.18533e-05
2.66887e-08
7.18544e-05
2.49019e-08
7.18551e-05
2.2616e-08
7.18566e-05
1.82647e-08
7.18584e-05
1.45102e-08
7.18605e-05
1.05139e-08
7.1863e-05
6.69532e-09
3.2475e-09
7.18656e-05
7.75292e-05
7.75332e-05
7.75392e-05
7.75464e-05
7.75547e-05
7.75638e-05
7.75735e-05
7.75836e-05
7.75941e-05
7.76049e-05
7.76156e-05
7.76261e-05
7.7636e-05
7.76446e-05
7.76507e-05
7.76537e-05
7.76549e-05
7.76548e-05
7.76539e-05
7.76527e-05
3.77488e-06
6.80718e-08
3.68074e-06
9.41423e-08
3.58112e-06
9.96152e-08
3.48284e-06
9.82795e-08
3.38476e-06
9.80805e-08
3.28551e-06
9.92449e-08
3.18449e-06
1.01025e-07
3.08158e-06
1.02909e-07
2.97686e-06
1.04719e-07
2.87038e-06
1.06487e-07
2.76196e-06
1.08417e-07
2.65164e-06
1.10322e-07
2.5394e-06
1.1224e-07
2.4253e-06
1.14096e-07
2.30937e-06
1.15931e-07
2.19174e-06
1.1763e-07
2.07275e-06
1.18991e-07
1.95265e-06
1.20101e-07
1.83171e-06
1.20935e-07
1.71028e-06
1.21431e-07
1.58914e-06
1.2114e-07
1.4696e-06
1.19541e-07
1.35377e-06
1.15832e-07
1.24425e-06
1.09518e-07
1.14456e-06
9.96891e-08
1.05832e-06
8.6239e-08
9.88501e-07
6.98209e-08
9.36188e-07
5.23122e-08
8.99335e-07
3.68536e-08
8.73846e-07
2.54888e-08
8.55905e-07
1.79415e-08
8.42603e-07
1.33018e-08
8.31962e-07
1.06413e-08
8.22794e-07
9.16746e-09
8.14274e-07
8.51961e-09
8.05837e-07
8.43788e-09
7.96982e-07
8.85411e-09
7.87689e-07
9.29299e-09
7.78055e-07
9.63446e-09
7.67983e-07
1.00717e-08
7.57514e-07
1.04696e-08
7.46654e-07
1.08598e-08
7.3563e-07
1.10235e-08
7.24583e-07
1.10475e-08
7.13649e-07
1.09334e-08
7.02966e-07
1.06835e-08
6.92296e-07
1.067e-08
6.81798e-07
1.04976e-08
6.71479e-07
1.03197e-08
6.61383e-07
1.00959e-08
6.51715e-07
9.66795e-09
6.42141e-07
9.57359e-09
6.32904e-07
9.23746e-09
6.2408e-07
8.8233e-09
6.15396e-07
8.68434e-09
6.07159e-07
8.23698e-09
5.99172e-07
7.9868e-09
5.91318e-07
7.85483e-09
5.84018e-07
7.29931e-09
5.7693e-07
7.08805e-09
5.70001e-07
6.92883e-09
5.63607e-07
6.39402e-09
5.57416e-07
6.191e-09
5.51333e-07
6.08358e-09
5.45728e-07
5.60515e-09
5.40516e-07
5.21161e-09
5.35631e-07
4.88505e-09
5.31055e-07
4.57558e-09
5.26438e-07
4.61723e-09
5.22154e-07
4.28375e-09
5.18741e-07
3.41304e-09
5.15376e-07
3.36488e-09
5.11686e-07
3.69045e-09
5.08553e-07
3.13335e-09
5.06044e-07
2.50831e-09
5.03552e-07
2.49207e-09
5.01138e-07
2.41422e-09
4.98981e-07
2.15665e-09
4.9708e-07
1.90165e-09
4.95411e-07
1.66895e-09
4.93853e-07
1.55757e-09
4.92376e-07
1.47695e-09
4.91178e-07
1.19819e-09
4.90134e-07
1.04456e-09
4.89118e-07
1.01574e-09
4.88239e-07
8.79056e-10
4.87522e-07
7.16656e-10
4.86884e-07
6.38314e-10
4.86289e-07
5.95177e-10
4.85818e-07
4.70463e-10
4.85417e-07
4.01205e-10
4.85067e-07
3.49904e-10
4.8478e-07
2.87041e-10
4.84534e-07
2.46264e-10
4.84348e-07
1.85533e-10
4.8416e-07
1.88045e-10
4.84016e-07
1.43659e-10
4.83875e-07
1.41804e-10
4.83641e-07
2.33243e-10
5.22064e-10
4.1648e-06
6.28666e-08
4.16878e-06
9.01626e-08
4.16356e-06
1.04835e-07
4.15372e-06
1.08111e-07
4.14284e-06
1.08968e-07
4.13081e-06
1.11269e-07
4.11665e-06
1.15188e-07
4.09964e-06
1.19918e-07
4.07965e-06
1.24707e-07
4.0566e-06
1.29536e-07
4.03038e-06
1.34634e-07
4.00083e-06
1.3988e-07
3.96776e-06
1.4531e-07
3.93103e-06
1.50818e-07
3.89047e-06
1.56498e-07
3.84597e-06
1.62126e-07
3.79738e-06
1.67579e-07
3.74478e-06
1.72707e-07
3.68797e-06
1.77742e-07
3.62704e-06
1.82364e-07
3.56204e-06
1.86142e-07
3.49338e-06
1.88198e-07
3.42202e-06
1.87194e-07
3.34881e-06
1.82728e-07
3.27544e-06
1.73053e-07
3.20367e-06
1.58011e-07
3.13565e-06
1.37842e-07
3.07274e-06
1.15217e-07
3.01579e-06
9.38112e-08
2.96445e-06
7.68218e-08
2.91701e-06
6.53862e-08
2.87222e-06
5.80943e-08
2.82909e-06
5.37651e-08
2.78712e-06
5.11401e-08
2.74621e-06
4.94261e-08
2.70591e-06
4.87372e-08
2.66606e-06
4.87106e-08
2.62652e-06
4.88317e-08
2.58746e-06
4.86885e-08
2.54876e-06
4.87785e-08
2.51033e-06
4.88961e-08
2.47225e-06
4.8945e-08
2.4343e-06
4.89677e-08
2.39691e-06
4.844e-08
2.36029e-06
4.7557e-08
2.32421e-06
4.67613e-08
2.28879e-06
4.60833e-08
2.25397e-06
4.53256e-08
2.21971e-06
4.45733e-08
2.18649e-06
4.33242e-08
2.15409e-06
4.20646e-08
2.12224e-06
4.14197e-08
2.09147e-06
4.00137e-08
2.06171e-06
3.85836e-08
2.03265e-06
3.77361e-08
2.00466e-06
3.62262e-08
1.97765e-06
3.4998e-08
1.95131e-06
3.41942e-08
1.92593e-06
3.26835e-08
1.90168e-06
3.13431e-08
1.87843e-06
3.01689e-08
1.856e-06
2.88247e-08
1.83427e-06
2.79211e-08
1.81354e-06
2.68142e-08
1.79406e-06
2.5091e-08
1.77555e-06
2.3722e-08
1.75779e-06
2.26446e-08
1.74087e-06
2.14952e-08
1.72488e-06
2.06098e-08
1.71004e-06
1.91166e-08
1.69633e-06
1.7121e-08
1.68313e-06
1.65667e-08
1.67049e-06
1.63319e-08
1.65907e-06
1.45525e-08
1.64871e-06
1.28704e-08
1.63891e-06
1.2289e-08
1.62979e-06
1.15425e-08
1.62146e-06
1.04775e-08
1.61389e-06
9.47802e-09
1.60697e-06
8.58781e-09
1.60062e-06
7.90311e-09
1.59485e-06
7.2517e-09
1.58974e-06
6.30464e-09
1.58513e-06
5.65266e-09
1.58094e-06
5.20599e-09
1.57723e-06
4.5964e-09
1.57397e-06
3.97809e-09
1.57105e-06
3.55089e-09
1.56847e-06
3.17904e-09
1.56624e-06
2.69837e-09
1.56431e-06
2.33443e-09
1.56263e-06
2.0252e-09
1.56121e-06
1.71426e-09
1.56e-06
1.45624e-09
1.55898e-06
1.20386e-09
1.55811e-06
1.05318e-09
1.55739e-06
8.65086e-10
1.55675e-06
7.83386e-10
1.55617e-06
8.16232e-10
1.4827e-09
4.49744e-06
6.11595e-08
4.5034e-06
8.4208e-08
4.50706e-06
1.01173e-07
4.50663e-06
1.08542e-07
4.50511e-06
1.1049e-07
4.50441e-06
1.11965e-07
4.50446e-06
1.15141e-07
4.50441e-06
1.19961e-07
4.50383e-06
1.25297e-07
4.5025e-06
1.3086e-07
4.50039e-06
1.36741e-07
4.49743e-06
1.42848e-07
4.49341e-06
1.49328e-07
4.48828e-06
1.55949e-07
4.48178e-06
1.62991e-07
4.47389e-06
1.70021e-07
4.46434e-06
1.77131e-07
4.45311e-06
1.8393e-07
4.44009e-06
1.90762e-07
4.42514e-06
1.9732e-07
4.40828e-06
2.02997e-07
4.38935e-06
2.07127e-07
4.36851e-06
2.08043e-07
4.34571e-06
2.05523e-07
4.32115e-06
1.97615e-07
4.29517e-06
1.83992e-07
4.26813e-06
1.64881e-07
4.24088e-06
1.42467e-07
4.21417e-06
1.20526e-07
4.18883e-06
1.02156e-07
4.16439e-06
8.98261e-08
4.14025e-06
8.22341e-08
4.11607e-06
7.7948e-08
4.09142e-06
7.57859e-08
4.06649e-06
7.43606e-08
4.04099e-06
7.42376e-08
4.01496e-06
7.47397e-08
3.98838e-06
7.54099e-08
3.9612e-06
7.58649e-08
3.93358e-06
7.64035e-08
3.90522e-06
7.72559e-08
3.87634e-06
7.78227e-08
3.84675e-06
7.85554e-08
3.81651e-06
7.86822e-08
3.78604e-06
7.8025e-08
3.75499e-06
7.7819e-08
3.72365e-06
7.7423e-08
3.69194e-06
7.70346e-08
3.65969e-06
7.68253e-08
3.62752e-06
7.54929e-08
3.595e-06
7.45847e-08
3.56219e-06
7.42224e-08
3.52953e-06
7.26752e-08
3.49667e-06
7.14454e-08
3.464e-06
7.04107e-08
3.43153e-06
6.8694e-08
3.39901e-06
6.75138e-08
3.36686e-06
6.63476e-08
3.33482e-06
6.4727e-08
3.30301e-06
6.31492e-08
3.272e-06
6.11782e-08
3.24127e-06
5.95579e-08
3.2108e-06
5.83904e-08
3.18112e-06
5.64903e-08
3.15204e-06
5.41731e-08
3.12379e-06
5.19711e-08
3.09656e-06
4.98789e-08
3.06967e-06
4.83832e-08
3.04348e-06
4.68006e-08
3.01892e-06
4.36716e-08
2.99543e-06
4.06112e-08
2.97228e-06
3.97219e-08
2.95007e-06
3.8537e-08
2.92937e-06
3.5255e-08
2.90986e-06
3.2384e-08
2.89122e-06
3.09205e-08
2.87358e-06
2.91836e-08
2.85711e-06
2.69543e-08
2.84181e-06
2.47758e-08
2.82749e-06
2.29056e-08
2.81412e-06
2.12738e-08
2.8018e-06
1.95723e-08
2.79053e-06
1.75711e-08
2.7801e-06
1.60808e-08
2.77054e-06
1.47705e-08
2.76185e-06
1.32837e-08
2.75399e-06
1.18402e-08
2.74683e-06
1.07126e-08
2.74038e-06
9.62846e-09
2.7346e-06
8.4749e-09
2.72943e-06
7.50541e-09
2.72484e-06
6.615e-09
2.72077e-06
5.78529e-09
2.71723e-06
4.99853e-09
2.71411e-06
4.32603e-09
2.71142e-06
3.7393e-09
2.70909e-06
3.19974e-09
2.70707e-06
2.79878e-09
2.70529e-06
2.59687e-09
3.24223e-09
4.85844e-06
6.08898e-08
4.86265e-06
8.00052e-08
4.86737e-06
9.64492e-08
4.86879e-06
1.07118e-07
4.86814e-06
1.11146e-07
4.86789e-06
1.12213e-07
4.86852e-06
1.14517e-07
4.86988e-06
1.18593e-07
4.87145e-06
1.23726e-07
4.87293e-06
1.29381e-07
4.87425e-06
1.35426e-07
4.87548e-06
1.41618e-07
4.87655e-06
1.4826e-07
4.8775e-06
1.54993e-07
4.87825e-06
1.62249e-07
4.87879e-06
1.69474e-07
4.87907e-06
1.76854e-07
4.87907e-06
1.83935e-07
4.87888e-06
1.90946e-07
4.87841e-06
1.97796e-07
4.87781e-06
2.03597e-07
4.87688e-06
2.08051e-07
4.87554e-06
2.09381e-07
4.87354e-06
2.07529e-07
4.87053e-06
2.00624e-07
4.86628e-06
1.88241e-07
4.86033e-06
1.70831e-07
4.85295e-06
1.49844e-07
4.8446e-06
1.2888e-07
4.83615e-06
1.10602e-07
4.82796e-06
9.80186e-08
4.81969e-06
9.05085e-08
4.81132e-06
8.63186e-08
4.80251e-06
8.4596e-08
4.79333e-06
8.35385e-08
4.78377e-06
8.37913e-08
4.77382e-06
8.46933e-08
4.76356e-06
8.56709e-08
4.75278e-06
8.66426e-08
4.74165e-06
8.7532e-08
4.72997e-06
8.89359e-08
4.71779e-06
9.00095e-08
4.70514e-06
9.12052e-08
4.69175e-06
9.207e-08
4.67796e-06
9.18182e-08
4.66349e-06
9.22863e-08
4.64838e-06
9.25295e-08
4.63284e-06
9.25745e-08
4.61652e-06
9.31428e-08
4.59984e-06
9.21726e-08
4.58262e-06
9.18041e-08
4.56466e-06
9.21856e-08
4.54635e-06
9.09828e-08
4.5274e-06
9.03978e-08
4.50799e-06
8.98205e-08
4.48828e-06
8.84017e-08
4.46792e-06
8.78811e-08
4.44725e-06
8.70192e-08
4.42624e-06
8.57339e-08
4.40472e-06
8.4665e-08
4.38319e-06
8.2715e-08
4.36139e-06
8.13555e-08
4.33907e-06
8.07078e-08
4.3167e-06
7.88593e-08
4.29427e-06
7.66034e-08
4.27173e-06
7.45161e-08
4.24947e-06
7.2131e-08
4.22716e-06
7.06967e-08
4.20468e-06
6.92828e-08
4.18287e-06
6.54804e-08
4.16155e-06
6.1935e-08
4.13994e-06
6.13248e-08
4.11866e-06
5.98252e-08
4.09824e-06
5.56737e-08
4.07838e-06
5.22409e-08
4.0589e-06
5.0398e-08
4.03998e-06
4.81056e-08
4.02168e-06
4.52496e-08
4.00418e-06
4.22802e-08
3.98734e-06
3.97492e-08
3.97112e-06
3.74954e-08
3.95568e-06
3.50098e-08
3.94114e-06
3.21058e-08
3.92731e-06
2.99147e-08
3.91424e-06
2.78348e-08
3.902e-06
2.55328e-08
3.89055e-06
2.32882e-08
3.87984e-06
2.14223e-08
3.86988e-06
1.95836e-08
3.86071e-06
1.76475e-08
3.85219e-06
1.6027e-08
3.84442e-06
1.43822e-08
3.83724e-06
1.29711e-08
3.8308e-06
1.14361e-08
3.82485e-06
1.02706e-08
3.81963e-06
8.96259e-09
3.81482e-06
8.00578e-09
3.81068e-06
6.93905e-09
3.80682e-06
6.46286e-09
6.55245e-09
5.2483e-06
6.09539e-08
5.25136e-06
7.69453e-08
5.25547e-06
9.23361e-08
5.25813e-06
1.04463e-07
5.25862e-06
1.10651e-07
5.25838e-06
1.1246e-07
5.25864e-06
1.1425e-07
5.25982e-06
1.17414e-07
5.26153e-06
1.22017e-07
5.26333e-06
1.27583e-07
5.26503e-06
1.33725e-07
5.26673e-06
1.39912e-07
5.26843e-06
1.4656e-07
5.27018e-06
1.53247e-07
5.27196e-06
1.60471e-07
5.2738e-06
1.67632e-07
5.27569e-06
1.74959e-07
5.27767e-06
1.81958e-07
5.27988e-06
1.88741e-07
5.28229e-06
1.95377e-07
5.28508e-06
2.00807e-07
5.28814e-06
2.04999e-07
5.29131e-06
2.0621e-07
5.29443e-06
2.04406e-07
5.29704e-06
1.98013e-07
5.29879e-06
1.86496e-07
5.29911e-06
1.70506e-07
5.29797e-06
1.50988e-07
5.29564e-06