/*--------------------------------*- C++ -*----------------------------------*\
| =========                 |                                                 |
| \\      /  F ield         | OpenFOAM: The Open Source CFD Toolbox           |
|  \\    /   O peration     | Version:  v1906                                 |
|   \\  /    A nd           | Web:      www.OpenFOAM.com                      |
|    \\/     M anipulation  |                                                 |
\*---------------------------------------------------------------------------*/
FoamFile
{
    version     2.0;
    format      ascii;
    class       volVectorField;
    location    "0.8";
    object      U;
}
// * * * * * * * * * * * * * * * * * * * * * * * * * * * * * * * * * * * * * //

dimensions      [0 1 -1 0 0 0 0];


internalField   nonuniform List<vector> 
4800
(
(0.960069 0.000138959 0)
(1.0394 -9.97005e-05 0)
(0.963993 1.47673e-05 0)
(1.03533 -0.000554356 0)
(0.966945 5.32507e-06 0)
(1.03144 -0.000186483 0)
(0.970447 0.00063276 0)
(1.02883 -2.09441e-05 0)
(0.974133 0.000211137 0)
(1.02576 -0.000617432 0)
(0.976607 -0.000106669 0)
(1.02256 -0.000709258 0)
(0.978996 -0.000277539 0)
(1.01941 -0.000601767 0)
(0.981076 -7.1658e-05 0)
(1.01657 -0.000468103 0)
(0.982772 5.92781e-05 0)
(1.01363 -0.000339121 0)
(0.983832 0.000432562 0)
(1.01047 0.000820618 0)
(0.982448 7.45897e-05 0)
(1.01504 -6.08009e-05 0)
(0.986724 -9.14943e-06 0)
(1.01133 -0.000524503 0)
(0.989505 -4.72285e-06 0)
(1.0081 -0.000176855 0)
(0.99236 0.000629875 0)
(1.00638 -6.00416e-05 0)
(0.99507 0.000211006 0)
(1.00457 -0.000685886 0)
(0.996302 -0.00010133 0)
(1.00287 -0.00077387 0)
(0.997245 -0.000276535 0)
(1.00136 -0.000690592 0)
(0.997769 -0.000100571 0)
(1.00017 -0.000545352 0)
(0.997886 0.00014412 0)
(0.998891 -0.000147769 0)
(0.997602 0.00110057 0)
(0.997475 0.00196035 0)
(0.995826 0.000152809 0)
(1.00292 -0.000140991 0)
(0.99756 7.43713e-05 0)
(1.00168 -0.000537362 0)
(0.998082 3.97749e-05 0)
(1.00063 -0.000199344 0)
(0.998885 0.000519233 0)
(1.00081 -2.06858e-05 0)
(0.999906 0.000118158 0)
(1.00061 -0.000454011 0)
(0.99986 -0.000280625 0)
(1.00022 -0.000505525 0)
(0.999776 -0.000455355 0)
(0.999755 -0.00045392 0)
(0.999484 -0.000301154 0)
(0.999351 -0.000244492 0)
(0.999013 2.40138e-05 0)
(0.998725 0.000488022 0)
(0.998396 0.00142124 0)
(0.997909 0.00243241 0)
(0.999386 0.000139374 0)
(1.00041 -0.000139195 0)
(0.999942 4.39484e-05 0)
(1.00017 -0.000539058 0)
(0.999689 6.95649e-06 0)
(0.999833 -0.000144849 0)
(0.999915 0.000468661 0)
(1.00039 4.85606e-05 0)
(1.00055 -9.37658e-06 0)
(1.00046 -0.000375463 0)
(1.00033 -0.000383104 0)
(1.00025 -0.00046118 0)
(1.00015 -0.000562176 0)
(0.999919 -0.000436063 0)
(0.999809 -0.000360037 0)
(0.999594 -0.000191605 0)
(0.999364 0.000180743 0)
(0.999131 0.000850801 0)
(0.998854 0.00170663 0)
(0.998402 0.00259567 0)
(0.99994 0.000141208 0)
(1.00014 -0.000132365 0)
(1.00028 3.19105e-05 0)
(1.00007 -0.00045003 0)
(0.999914 -4.30731e-05 0)
(0.999871 -7.05383e-05 0)
(1.0001 0.000302404 0)
(1.00043 0.000135019 0)
(1.00064 -0.000120803 0)
(1.00052 -0.000314232 0)
(1.00044 -0.000425252 0)
(1.00032 -0.000467721 0)
(1.00026 -0.000582808 0)
(1.00003 -0.000433422 0)
(0.999943 -0.000322131 0)
(0.999773 -3.57424e-05 0)
(0.999603 0.000579866 0)
(0.999415 0.00122529 0)
(0.999164 0.00193633 0)
(0.998747 0.00271581 0)
(1 0.00012998 0)
(1.00012 -0.0001036 0)
(1.00032 -2.87254e-05 0)
(1.00006 -0.000388892 0)
(0.99995 -0.000126627 0)
(0.999904 1.43442e-05 0)
(1.00017 0.000199487 0)
(1.00045 0.000177884 0)
(1.00064 -0.000156377 0)
(1.00052 -0.000328148 0)
(1.00046 -0.00047611 0)
(1.00033 -0.000486474 0)
(1.0003 -0.000606381 0)
(1.00008 -0.000401919 0)
(1.00002 -0.000193277 0)
(0.99991 0.000283231 0)
(0.999766 0.000909088 0)
(0.999595 0.00146528 0)
(0.999373 0.0020547 0)
(0.998991 0.00276333 0)
(1.00001 0.000125284 0)
(1.00011 -8.23902e-05 0)
(1.00032 -7.76934e-05 0)
(1.00007 -0.000316336 0)
(0.999966 -0.000165106 0)
(0.999918 4.14277e-05 0)
(1.00019 0.000175765 0)
(1.00045 9.17236e-05 0)
(1.00062 -0.000146784 0)
(1.00051 -0.000361682 0)
(1.00046 -0.000499725 0)
(1.00033 -0.000504025 0)
(1.00032 -0.000554405 0)
(1.00013 -0.000320754 0)
(1.00011 9.29748e-05 0)
(1.00004 0.000579395 0)
(0.9999 0.00112729 0)
(0.999736 0.00160629 0)
(0.999549 0.00212998 0)
(0.999204 0.00277934 0)
(1.00001 0.000106325 0)
(1.00011 -3.45188e-05 0)
(1.00032 -0.000147844 0)
(1.00007 -0.000252599 0)
(0.999983 -0.000199487 0)
(0.999939 2.39731e-05 0)
(1.0002 0.000174533 0)
(1.00045 2.47328e-05 0)
(1.0006 -0.000220043 0)
(1.00049 -0.000367938 0)
(1.00046 -0.00052817 0)
(1.00034 -0.000483572 0)
(1.00035 -0.000477034 0)
(1.00022 -9.76508e-05 0)
(1.00022 0.000380711 0)
(1.00015 0.000758077 0)
(1.00002 0.001228 0)
(0.999869 0.00168724 0)
(0.999717 0.00218684 0)
(0.999412 0.00278967 0)
(1.00002 0.000100674 0)
(1.0001 -7.47021e-06 0)
(1.00031 -0.000178096 0)
(1.00007 -0.000249673 0)
(0.999995 -0.000163613 0)
(0.999962 -4.24222e-05 0)
(1.0002 0.000154795 0)
(1.00043 -1.01573e-05 0)
(1.00058 -0.000264577 0)
(1.00048 -0.000410594 0)
(1.00046 -0.000485312 0)
(1.00035 -0.000446477 0)
(1.0004 -0.000269404 0)
(1.00031 0.000171268 0)
(1.0003 0.000577438 0)
(1.00025 0.00087524 0)
(1.00014 0.00129357 0)
(1.00001 0.00176005 0)
(0.99989 0.00224907 0)
(0.999623 0.00281079 0)
(1.00002 8.70249e-05 0)
(1.00009 2.32348e-05 0)
(1.0003 -0.000176135 0)
(1.00008 -0.000277036 0)
(1.00001 -0.00014487 0)
(0.999981 -6.87423e-05 0)
(1.00021 6.23118e-05 0)
(1.00041 -9.7133e-06 0)
(1.00055 -0.000281975 0)
(1.00047 -0.000451426 0)
(1.00046 -0.000448084 0)
(1.00039 -0.000300101 0)
(1.00048 -3.65635e-05 0)
(1.00041 0.000329784 0)
(1.00038 0.000701376 0)
(1.00034 0.000983184 0)
(1.00027 0.00136694 0)
(1.00016 0.00182747 0)
(1.00006 0.00230771 0)
(0.999829 0.00283288 0)
(1.00002 7.83121e-05 0)
(1.00008 4.02386e-05 0)
(1.00029 -0.00014696 0)
(1.00008 -0.000322382 0)
(1.00002 -0.000150462 0)
(0.999991 -5.83141e-05 0)
(1.00021 -2.5913e-05 0)
(1.00039 -7.25818e-05 0)
(1.00052 -0.000263179 0)
(1.00046 -0.000400548 0)
(1.00049 -0.000381612 0)
(1.00044 -6.51772e-05 0)
(1.00054 0.000161931 0)
(1.00049 0.000440611 0)
(1.00047 0.000789171 0)
(1.00044 0.00108393 0)
(1.0004 0.00144678 0)
(1.00032 0.00189411 0)
(1.00025 0.00236646 0)
(1.00004 0.00286296 0)
(1.00002 6.96498e-05 0)
(1.00007 3.9802e-05 0)
(1.00027 -0.000108846 0)
(1.00008 -0.000327174 0)
(1.00004 -0.000216019 0)
(1 -4.36218e-05 0)
(1.00021 -5.67624e-05 0)
(1.00038 -0.000169926 0)
(1.00051 -0.000245331 0)
(1.00046 -0.000290168 0)
(1.00053 -0.000220117 0)
(1.00051 6.55225e-05 0)
(1.0006 0.00029374 0)
(1.00057 0.000532362 0)
(1.00056 0.000858128 0)
(1.00054 0.00116793 0)
(1.00053 0.00151847 0)
(1.00049 0.00194376 0)
(1.00044 0.00239506 0)
(1.00024 0.00286014 0)
(1.00003 6.02444e-05 0)
(1.00006 3.42745e-05 0)
(1.00025 -0.000102613 0)
(1.00007 -0.000256009 0)
(1.00006 -0.000312129 0)
(1.00002 -8.44523e-05 0)
(1.0002 -3.92928e-05 0)
(1.00036 -0.000185245 0)
(1.00051 -0.000271877 0)
(1.00048 -0.000142721 0)
(1.00057 -3.12342e-05 0)
(1.00056 0.00015789 0)
(1.00066 0.000382533 0)
(1.00064 0.000614213 0)
(1.00066 0.000920018 0)
(1.00065 0.00124105 0)
(1.00067 0.00158974 0)
(1.00066 0.00199334 0)
(1.00063 0.00241719 0)
(1.00045 0.00285217 0)
(1.00003 5.10205e-05 0)
(1.00005 2.52935e-05 0)
(1.00024 -0.000105427 0)
(1.00006 -0.000198093 0)
(1.00007 -0.000332177 0)
(1.00004 -0.000202896 0)
(1.0002 -3.24392e-05 0)
(1.00034 -0.000113658 0)
(1.00053 -0.000217218 0)
(1.00052 -5.2107e-05 0)
(1.00061 0.000109922 0)
(1.00061 0.000283554 0)
(1.00073 0.000494419 0)
(1.00073 0.000724839 0)
(1.00076 0.00101284 0)
(1.00077 0.00133284 0)
(1.00082 0.00167847 0)
(1.00083 0.00205915 0)
(1.00082 0.00245083 0)
(1.00065 0.00285529 0)
(1.00003 3.63572e-05 0)
(1.00004 3.5615e-05 0)
(1.00023 -0.000146724 0)
(1.00005 -0.000151602 0)
(1.00006 -0.000276727 0)
(1.00007 -0.000291733 0)
(1.00022 -0.000104729 0)
(1.00034 -1.11289e-05 0)
(1.00053 -7.42478e-05 0)
(1.00056 1.08332e-05 0)
(1.00067 0.000177898 0)
(1.00067 0.00037534 0)
(1.0008 0.000580222 0)
(1.00082 0.000806292 0)
(1.00087 0.00108044 0)
(1.0009 0.00139272 0)
(1.00097 0.00173421 0)
(1.001 0.00209795 0)
(1.00101 0.00246007 0)
(1.00086 0.00283527 0)
(1.00004 2.29732e-05 0)
(1.00003 4.74802e-05 0)
(1.00022 -0.000180524 0)
(1.00004 -0.000158516 0)
(1.00005 -0.000206793 0)
(1.00008 -0.00028115 0)
(1.00026 -0.000197282 0)
(1.00036 8.01198e-06 0)
(1.00054 8.03749e-05 0)
(1.00059 0.00014977 0)
(1.00072 0.000257013 0)
(1.00074 0.000431109 0)
(1.00087 0.000643635 0)
(1.00091 0.000878859 0)
(1.00099 0.00114766 0)
(1.00104 0.00145078 0)
(1.00113 0.0017796 0)
(1.00118 0.00212716 0)
(1.00121 0.00246346 0)
(1.00107 0.00280868 0)
(1.00004 1.16934e-05 0)
(1.00002 4.70326e-05 0)
(1.0002 -0.000172938 0)
(1.00005 -0.000216578 0)
(1.00005 -0.00013816 0)
(1.00008 -0.000209502 0)
(1.00029 -0.000191943 0)
(1.00041 -3.29855e-05 0)
(1.00058 0.000145335 0)
(1.00062 0.000290537 0)
(1.00076 0.000395119 0)
(1.0008 0.000527795 0)
(1.00096 0.000722586 0)
(1.00101 0.000956704 0)
(1.00111 0.0012138 0)
(1.00118 0.00149991 0)
(1.00129 0.00180912 0)
(1.00136 0.00213993 0)
(1.0014 0.00245839 0)
(1.00128 0.00277637 0)
(1.00004 7.57373e-06 0)
(1 2.54631e-05 0)
(1.00018 -0.000143494 0)
(1.00005 -0.000245466 0)
(1.00006 -0.000140374 0)
(1.00008 -0.000105997 0)
(1.00031 -0.000105662 0)
(1.00045 -2.51311e-05 0)
(1.00064 0.000129916 0)
(1.00067 0.000346543 0)
(1.0008 0.000501355 0)
(1.00086 0.000634609 0)
(1.00104 0.000801769 0)
(1.00111 0.00102791 0)
(1.00123 0.00127712 0)
(1.00133 0.00154902 0)
(1.00146 0.00183849 0)
(1.00154 0.00214916 0)
(1.0016 0.00245091 0)
(1.00148 0.00274307 0)
(1.00005 -2.81743e-07 0)
(0.999997 1.2491e-06 0)
(1.00016 -0.000131322 0)
(1.00005 -0.000223865 0)
(1.00008 -0.000172093 0)
(1.00009 -4.14586e-05 0)
(1.00032 2.33155e-05 0)
(1.00048 6.49706e-05 0)
(1.0007 0.000145692 0)
(1.00074 0.000340108 0)
(1.00086 0.000551043 0)
(1.00092 0.000723024 0)
(1.00112 0.000888404 0)
(1.00122 0.00110189 0)
(1.00135 0.00134119 0)
(1.00147 0.00159966 0)
(1.00163 0.00186854 0)
(1.00173 0.00215376 0)
(1.00179 0.00243491 0)
(1.00168 0.00270269 0)
(1.00005 -4.89668e-06 0)
(0.99999 -1.87234e-05 0)
(1.00015 -0.000137119 0)
(1.00006 -0.00018839 0)
(1.0001 -0.000157238 0)
(1.00013 -2.48274e-05 0)
(1.00035 0.000114453 0)
(1.0005 0.000195694 0)
(1.00074 0.000232682 0)
(1.00082 0.000365535 0)
(1.00095 0.000570354 0)
(1.001 0.000775757 0)
(1.00121 0.000954234 0)
(1.00133 0.0011627 0)
(1.00149 0.00139461 0)
(1.00162 0.00164023 0)
(1.0018 0.00189358 0)
(1.00192 0.00215447 0)
(1.00199 0.00241374 0)
(1.00189 0.00265906 0)
(1.00005 -1.28736e-05 0)
(0.999985 -2.88295e-05 0)
(1.00014 -0.000138565 0)
(1.00006 -0.000164571 0)
(1.00013 -9.90348e-05 0)
(1.00018 2.63572e-06 0)
(1.00039 0.000144853 0)
(1.00053 0.000281316 0)
(1.00077 0.000343865 0)
(1.00088 0.00043722 0)
(1.00104 0.000600471 0)
(1.0011 0.000808744 0)
(1.00131 0.000999579 0)
(1.00145 0.00120779 0)
(1.00163 0.00143717 0)
(1.00178 0.00166753 0)
(1.00197 0.00190458 0)
(1.0021 0.00214326 0)
(1.00218 0.00237924 0)
(1.00209 0.00260466 0)
(1.00005 -1.62847e-05 0)
(0.999979 -3.50106e-05 0)
(1.00014 -0.000132294 0)
(1.00008 -0.000148189 0)
(1.00016 -4.21092e-05 0)
(1.00021 6.28775e-05 0)
(1.00045 0.000180208 0)
(1.00058 0.000323363 0)
(1.00081 0.000428492 0)
(1.00094 0.000519103 0)
(1.00113 0.000651919 0)
(1.0012 0.000841248 0)
(1.00143 0.00103096 0)
(1.00158 0.00123213 0)
(1.00177 0.00145852 0)
(1.00194 0.00168088 0)
(1.00214 0.00190181 0)
(1.00229 0.00212369 0)
(1.00238 0.00233823 0)
(1.00228 0.00254653 0)
(1.00005 -1.66388e-05 0)
(0.999975 -4.39744e-05 0)
(1.00014 -0.000108705 0)
(1.0001 -0.000121546 0)
(1.0002 -6.10709e-06 0)
(1.00026 0.000133531 0)
(1.0005 0.000234698 0)
(1.00064 0.000363494 0)
(1.00087 0.000482311 0)
(1.001 0.000595877 0)
(1.00121 0.000715323 0)
(1.00131 0.000887622 0)
(1.00154 0.00106889 0)
(1.00172 0.00125581 0)
(1.00193 0.00146846 0)
(1.0021 0.00168488 0)
(1.00232 0.00189056 0)
(1.00247 0.00209487 0)
(1.00257 0.00228986 0)
(1.00248 0.00247992 0)
(1.00005 -1.60465e-05 0)
(0.999975 -4.51603e-05 0)
(1.00014 -8.53369e-05 0)
(1.00013 -8.28219e-05 0)
(1.00025 2.57707e-05 0)
(1.00031 0.00017852 0)
(1.00054 0.000296404 0)
(1.0007 0.000407706 0)
(1.00093 0.000526437 0)
(1.00106 0.000649489 0)
(1.00129 0.000774536 0)
(1.00141 0.000930038 0)
(1.00166 0.00110133 0)
(1.00185 0.00127693 0)
(1.00208 0.0014685 0)
(1.00226 0.00167113 0)
(1.00249 0.00186669 0)
(1.00265 0.00205327 0)
(1.00276 0.00223231 0)
(1.00267 0.00240404 0)
(1.00005 -1.20162e-05 0)
(0.999976 -3.85603e-05 0)
(1.00015 -5.93671e-05 0)
(1.00015 -3.62332e-05 0)
(1.0003 5.99863e-05 0)
(1.00037 0.000211699 0)
(1.0006 0.000344162 0)
(1.00075 0.000458915 0)
(1.001 0.000568253 0)
(1.00114 0.000689503 0)
(1.00138 0.000817145 0)
(1.00151 0.000968409 0)
(1.00177 0.00112407 0)
(1.00198 0.00129335 0)
(1.00223 0.00146964 0)
(1.00243 0.00164944 0)
(1.00266 0.00183502 0)
(1.00283 0.00200495 0)
(1.00294 0.00216827 0)
(1.00286 0.00232219 0)
(1.00006 -9.11852e-06 0)
(0.999979 -2.19788e-05 0)
(1.00016 -2.98074e-05 0)
(1.00018 1.02365e-05 0)
(1.00035 0.000105561 0)
(1.00043 0.00024385 0)
(1.00066 0.000378072 0)
(1.00081 0.000498102 0)
(1.00106 0.000611056 0)
(1.00121 0.000727462 0)
(1.00147 0.000847972 0)
(1.00162 0.000998851 0)
(1.00189 0.00114391 0)
(1.00212 0.00129668 0)
(1.00238 0.00146489 0)
(1.00259 0.00162297 0)
(1.00283 0.00179267 0)
(1.003 0.00194769 0)
(1.00312 0.00209485 0)
(1.00304 0.00223346 0)
(1.00006 -2.05513e-06 0)
(0.999982 -3.80156e-06 0)
(1.00017 6.04961e-06 0)
(1.00021 5.33845e-05 0)
(1.0004 0.000150825 0)
(1.00048 0.000276891 0)
(1.00072 0.000408278 0)
(1.00088 0.000528711 0)
(1.00113 0.000643788 0)
(1.00128 0.000762387 0)
(1.00156 0.000872028 0)
(1.00172 0.00101171 0)
(1.002 0.00115563 0)
(1.00225 0.00128913 0)
(1.00252 0.00144607 0)
(1.00274 0.00159065 0)
(1.003 0.00174044 0)
(1.00316 0.00188223 0)
(1.00329 0.00201258 0)
(1.00321 0.00213887 0)
(1.00006 4.87574e-06 0)
(0.999986 1.82136e-05 0)
(1.00018 4.33165e-05 0)
(1.00023 9.80742e-05 0)
(1.00044 0.000193284 0)
(1.00054 0.000312185 0)
(1.00078 0.000435154 0)
(1.00094 0.000554439 0)
(1.0012 0.000664614 0)
(1.00136 0.000783796 0)
(1.00164 0.000891941 0)
(1.00182 0.001014 0)
(1.00211 0.00115278 0)
(1.00237 0.00127514 0)
(1.00266 0.0014143 0)
(1.00289 0.00154822 0)
(1.00315 0.00167854 0)
(1.00332 0.00180763 0)
(1.00345 0.00192095 0)
(1.00337 0.00203545 0)
(1.00006 1.31007e-05 0)
(0.99999 4.19395e-05 0)
(1.00019 8.15597e-05 0)
(1.00026 0.000142768 0)
(1.00048 0.000234123 0)
(1.00059 0.000346402 0)
(1.00084 0.000460662 0)
(1.001 0.000574685 0)
(1.00126 0.000682042 0)
(1.00143 0.000794658 0)
(1.00172 0.000901793 0)
(1.00192 0.00101314 0)
(1.00222 0.0011376 0)
(1.00248 0.00125058 0)
(1.00278 0.0013725 0)
(1.00302 0.00149409 0)
(1.00329 0.00160664 0)
(1.00346 0.001723 0)
(1.00359 0.00182096 0)
(1.00351 0.00192247 0)
(1.00006 2.16535e-05 0)
(0.999994 6.62164e-05 0)
(1.0002 0.000119097 0)
(1.00028 0.00018664 0)
(1.00051 0.000273944 0)
(1.00063 0.000379333 0)
(1.00089 0.000486312 0)
(1.00105 0.000591517 0)
(1.00132 0.000693149 0)
(1.0015 0.000800053 0)
(1.00179 0.000899134 0)
(1.00201 0.00100198 0)
(1.00231 0.00111407 0)
(1.00258 0.00121404 0)
(1.0029 0.00131975 0)
(1.00314 0.00143026 0)
(1.00342 0.00152512 0)
(1.00359 0.00162806 0)
(1.00372 0.0017132 0)
(1.00364 0.00180008 0)
(1.00006 2.99147e-05 0)
(0.999997 9.00529e-05 0)
(1.00021 0.000154402 0)
(1.0003 0.000227831 0)
(1.00054 0.000312633 0)
(1.00067 0.000409622 0)
(1.00093 0.000508639 0)
(1.0011 0.000607044 0)
(1.00138 0.000698831 0)
(1.00156 0.000797788 0)
(1.00186 0.000890311 0)
(1.00208 0.000979669 0)
(1.00239 0.00107955 0)
(1.00267 0.00116966 0)
(1.003 0.00125536 0)
(1.00324 0.00135434 0)
(1.00353 0.00143516 0)
(1.0037 0.0015207 0)
(1.00383 0.00159698 0)
(1.00376 0.0016675 0)
(1.00006 3.75784e-05 0)
(1 0.000112243 0)
(1.00022 0.000186393 0)
(1.00031 0.00026567 0)
(1.00056 0.000347695 0)
(1.00069 0.000437783 0)
(1.00096 0.000527986 0)
(1.00114 0.000618615 0)
(1.00142 0.000701919 0)
(1.00161 0.000788146 0)
(1.00191 0.00087239 0)
(1.00215 0.000951879 0)
(1.00246 0.00103261 0)
(1.00274 0.00111419 0)
(1.00308 0.0011831 0)
(1.00333 0.00126203 0)
(1.00361 0.00133574 0)
(1.0038 0.00140026 0)
(1.00393 0.00146805 0)
(1.00385 0.00152364 0)
(1.00006 4.41519e-05 0)
(1 0.000131561 0)
(1.00022 0.0002139 0)
(1.00031 0.00029778 0)
(1.00057 0.000378058 0)
(1.00071 0.000462141 0)
(1.00098 0.000545262 0)
(1.00116 0.000626368 0)
(1.00145 0.000701252 0)
(1.00165 0.000777175 0)
(1.00195 0.000845798 0)
(1.00219 0.000916032 0)
(1.00251 0.000981662 0)
(1.00279 0.00104455 0)
(1.00313 0.00110491 0)
(1.0034 0.0011584 0)
(1.00368 0.0012222 0)
(1.00386 0.00127054 0)
(1.00399 0.00132219 0)
(1.00392 0.00136812 0)
(1.00006 4.92258e-05 0)
(1 0.000146851 0)
(1.00022 0.000235753 0)
(1.00032 0.000322474 0)
(1.00057 0.000403052 0)
(1.00072 0.000481127 0)
(1.001 0.000557345 0)
(1.00118 0.000631584 0)
(1.00147 0.000696246 0)
(1.00167 0.000764754 0)
(1.00197 0.00082172 0)
(1.00222 0.00087238 0)
(1.00254 0.000931676 0)
(1.00282 0.000972024 0)
(1.00316 0.00101903 0)
(1.00343 0.00105456 0)
(1.00372 0.00109511 0)
(1.0039 0.00113466 0)
(1.00404 0.00116283 0)
(1.00396 0.00120044 0)
(1.00006 5.23438e-05 0)
(1 0.000155918 0)
(1.00022 0.000249995 0)
(1.00032 0.000338153 0)
(1.00057 0.000420028 0)
(1.00072 0.00049324 0)
(1.001 0.00056285 0)
(1.00118 0.000631898 0)
(1.00148 0.000688683 0)
(1.00168 0.000745728 0)
(1.00197 0.000801935 0)
(1.00223 0.000832643 0)
(1.00255 0.000880467 0)
(1.00281 0.00091038 0)
(1.00316 0.000932327 0)
(1.00343 0.000957603 0)
(1.00372 0.000968036 0)
(1.0039 0.000993593 0)
(1.00403 0.000998924 0)
(1.00396 0.00101762 0)
(1.00006 5.36703e-05 0)
(1 0.000157275 0)
(1.00022 0.000253727 0)
(1.00031 0.000342257 0)
(1.00057 0.000424669 0)
(1.00072 0.000497073 0)
(1.001 0.000562319 0)
(1.00118 0.00062402 0)
(1.00148 0.000677889 0)
(1.00168 0.000719622 0)
(1.00197 0.000773957 0)
(1.00221 0.000800465 0)
(1.00254 0.000828363 0)
(1.00278 0.000859067 0)
(1.00313 0.00086194 0)
(1.00338 0.000874978 0)
(1.00367 0.00086578 0)
(1.00384 0.000864413 0)
(1.00397 0.000852184 0)
(1.00391 0.000837181 0)
(1.00006 5.12677e-05 0)
(1 0.000150335 0)
(1.00022 0.000244076 0)
(1.00031 0.000329721 0)
(1.00057 0.000411096 0)
(1.00071 0.000485168 0)
(1.001 0.000551777 0)
(1.00118 0.000611794 0)
(1.00146 0.000668878 0)
(1.00167 0.000702899 0)
(1.00196 0.000739745 0)
(1.00218 0.000765565 0)
(1.00251 0.000764764 0)
(1.00274 0.000779826 0)
(1.00306 0.000770511 0)
(1.0033 0.000760544 0)
(1.00357 0.000744376 0)
(1.00373 0.000719867 0)
(1.00383 0.000704287 0)
(1.00376 0.000674414 0)
(1.00006 4.68721e-05 0)
(1.00001 0.00013313 0)
(1.00023 0.000219705 0)
(1.00031 0.000295597 0)
(1.00057 0.000371919 0)
(1.00071 0.00043897 0)
(1.001 0.000507843 0)
(1.00118 0.000566694 0)
(1.00146 0.000633019 0)
(1.00165 0.000681089 0)
(1.00193 0.000719189 0)
(1.00212 0.000756013 0)
(1.00243 0.000756242 0)
(1.00266 0.000747036 0)
(1.00295 0.00072364 0)
(1.00319 0.000669915 0)
(1.00344 0.000614916 0)
(1.00361 0.000534015 0)
(1.00371 0.000462015 0)
(1.00364 0.000377055 0)
(1.00006 4.09097e-05 0)
(1.00001 0.000112309 0)
(1.00023 0.000193031 0)
(1.00032 0.000260695 0)
(1.00057 0.000336742 0)
(1.00072 0.000402284 0)
(1.00101 0.000479222 0)
(1.0012 0.000547135 0)
(1.00149 0.000628548 0)
(1.00168 0.000705035 0)
(1.00195 0.000776243 0)
(1.00212 0.000841183 0)
(1.00237 0.000890182 0)
(1.00255 0.000900473 0)
(1.00277 0.000894735 0)
(1.00291 0.000834258 0)
(1.00308 0.000743711 0)
(1.00316 0.000602205 0)
(1.0032 0.000433843 0)
(1.0031 0.000242886 0)
(1.00006 1.8331e-05 0)
(1.00001 5.14758e-05 0)
(1.00024 9.11779e-05 0)
(1.00033 0.00012433 0)
(1.00059 0.000164486 0)
(1.00076 0.000200215 0)
(1.00106 0.000242907 0)
(1.00127 0.000283535 0)
(1.00157 0.000328917 0)
(1.00177 0.000374467 0)
(1.00205 0.000419204 0)
(1.00222 0.000458461 0)
(1.00244 0.000497907 0)
(1.00256 0.000516363 0)
(1.00268 0.000525544 0)
(1.00268 0.00050615 0)
(1.00267 0.000461617 0)
(1.00254 0.000385416 0)
(1.00238 0.000283351 0)
(1.00214 0.000165015 0)
(0.984479 0.00221793 0)
(0.960342 0.0033705 0)
(0.935993 0.00372542 0)
(0.911169 0.00370185 0)
(0.885937 0.00362369 0)
(0.860367 0.00358898 0)
(0.834451 0.00357962 0)
(0.808117 0.00356443 0)
(0.781346 0.00352997 0)
(0.754152 0.00348325 0)
(0.726471 0.00343609 0)
(0.69827 0.00338456 0)
(0.669579 0.00333344 0)
(0.640396 0.00327706 0)
(0.610746 0.00322101 0)
(0.580588 0.00315887 0)
(0.550046 0.00308512 0)
(0.519182 0.00300605 0)
(0.488083 0.00292348 0)
(0.456763 0.00283465 0)
(0.425396 0.0027213 0)
(0.394193 0.0025688 0)
(0.363634 0.00236569 0)
(0.334253 0.00207668 0)
(0.306982 0.0016616 0)
(0.282778 0.001155 0)
(0.262581 0.000568564 0)
(0.247091 5.68861e-05 0)
(0.236064 -0.000281429 0)
(0.228418 -0.000445788 0)
(0.22299 -0.000500507 0)
(0.219022 -0.00047707 0)
(0.215957 -0.000443285 0)
(0.213389 -0.000395684 0)
(0.211132 -0.000341918 0)
(0.208944 -0.000286669 0)
(0.206722 -0.000235008 0)
(0.204382 -0.000192025 0)
(0.201946 -0.000154029 0)
(0.199401 -0.000120765 0)
(0.196752 -9.15861e-05 0)
(0.193997 -6.93908e-05 0)
(0.191179 -5.322e-05 0)
(0.188318 -3.75859e-05 0)
(0.1855 -2.83474e-05 0)
(0.182694 -2.10232e-05 0)
(0.179946 -1.10212e-05 0)
(0.177216 -6.15869e-06 0)
(0.174523 8.5439e-07 0)
(0.171895 6.11237e-06 0)
(0.169351 5.74572e-06 0)
(0.166849 1.11688e-05 0)
(0.164446 1.43054e-05 0)
(0.162099 1.39646e-05 0)
(0.159851 1.69286e-05 0)
(0.157662 1.80662e-05 0)
(0.155574 1.816e-05 0)
(0.153524 1.83521e-05 0)
(0.151582 1.84091e-05 0)
(0.149706 2.1084e-05 0)
(0.147926 1.99461e-05 0)
(0.146188 1.60398e-05 0)
(0.144571 1.76443e-05 0)
(0.142977 1.94662e-05 0)
(0.141493 1.68391e-05 0)
(0.140076 1.39996e-05 0)
(0.138796 1.2985e-05 0)
(0.13755 1.32471e-05 0)
(0.136383 1.45474e-05 0)
(0.135227 1.22272e-05 0)
(0.13426 7.37954e-06 0)
(0.133344 9.0153e-06 0)
(0.132467 1.16269e-05 0)
(0.131569 8.15799e-06 0)
(0.130867 5.31729e-06 0)
(0.130189 6.19086e-06 0)
(0.129593 6.1098e-06 0)
(0.128969 4.99116e-06 0)
(0.128484 4.10121e-06 0)
(0.127985 3.38146e-06 0)
(0.127609 3.24392e-06 0)
(0.127177 3.14971e-06 0)
(0.12688 2.07959e-06 0)
(0.126541 1.72668e-06 0)
(0.126327 1.9258e-06 0)
(0.126032 1.45699e-06 0)
(0.125881 9.33172e-07 0)
(0.12565 8.63069e-07 0)
(0.125549 9.20198e-07 0)
(0.125354 5.08895e-07 0)
(0.125302 4.21891e-07 0)
(0.125144 3.78179e-07 0)
(0.125127 2.58755e-07 0)
(0.124991 2.50292e-07 0)
(0.125007 9.09778e-08 0)
(0.124883 3.13713e-07 0)
(0.124924 1.08956e-07 0)
(0.124795 2.71036e-07 0)
(0.12486 1.02819e-06 0)
(0.124645 1.94924e-06 0)
(0.996963 0.00405774 0)
(0.996018 0.00579559 0)
(0.994774 0.00643462 0)
(0.993074 0.00641854 0)
(0.990982 0.00627734 0)
(0.988351 0.00622511 0)
(0.985221 0.00626448 0)
(0.981446 0.00633952 0)
(0.97703 0.00641271 0)
(0.971949 0.00647528 0)
(0.966104 0.00654073 0)
(0.959505 0.00660261 0)
(0.95203 0.00666192 0)
(0.943754 0.00671697 0)
(0.934522 0.00676748 0)
(0.924377 0.00681212 0)
(0.913248 0.0068359 0)
(0.901143 0.00684555 0)
(0.888106 0.00684222 0)
(0.873962 0.00682523 0)
(0.858936 0.00677976 0)
(0.842792 0.00667647 0)
(0.825987 0.00651245 0)
(0.808458 0.00623832 0)
(0.790762 0.00578858 0)
(0.773295 0.00515993 0)
(0.756543 0.00436867 0)
(0.741168 0.00352967 0)
(0.727154 0.0027509 0)
(0.7145 0.00213939 0)
(0.702743 0.00170327 0)
(0.691607 0.00141197 0)
(0.681076 0.00121015 0)
(0.670749 0.00105373 0)
(0.660881 0.000946244 0)
(0.651127 0.00087488 0)
(0.641554 0.000836356 0)
(0.632084 0.000805693 0)
(0.62268 0.000773722 0)
(0.613419 0.000752213 0)
(0.604196 0.000731234 0)
(0.595067 0.000716385 0)
(0.586039 0.000694999 0)
(0.57695 0.000665167 0)
(0.568203 0.00063541 0)
(0.559469 0.000603184 0)
(0.550926 0.000579795 0)
(0.542581 0.000554092 0)
(0.534277 0.00052659 0)
(0.526223 0.000497727 0)
(0.518439 0.000468466 0)
(0.510683 0.000448944 0)
(0.503264 0.000418815 0)
(0.495992 0.000392524 0)
(0.489003 0.000375314 0)
(0.482157 0.000346035 0)
(0.475603 0.000328406 0)
(0.469237 0.000315391 0)
(0.463079 0.000285588 0)
(0.457054 0.000267597 0)
(0.451499 0.000256193 0)
(0.446004 0.000235771 0)
(0.440725 0.000221783 0)
(0.435612 0.000207564 0)
(0.430885 0.00018778 0)
(0.426287 0.00017495 0)
(0.422034 0.000161787 0)
(0.417794 0.000145942 0)
(0.413905 0.000139864 0)
(0.41022 0.000128021 0)
(0.406899 0.000105684 0)
(0.403537 0.000101305 0)
(0.400551 0.000102892 0)
(0.397633 8.65709e-05 0)
(0.395104 7.15344e-05 0)
(0.392591 6.87224e-05 0)
(0.390444 6.40407e-05 0)
(0.388255 5.65833e-05 0)
(0.386475 4.96018e-05 0)
(0.384629 4.32961e-05 0)
(0.383158 3.95114e-05 0)
(0.381592 3.61396e-05 0)
(0.380437 2.95075e-05 0)
(0.379128 2.57029e-05 0)
(0.378227 2.40513e-05 0)
(0.37714 2.05641e-05 0)
(0.376462 1.68855e-05 0)
(0.375564 1.48073e-05 0)
(0.375074 1.32899e-05 0)
(0.374338 1.05309e-05 0)
(0.374008 8.90733e-06 0)
(0.373408 7.59021e-06 0)
(0.373217 6.18985e-06 0)
(0.372717 5.17152e-06 0)
(0.372652 3.96438e-06 0)
(0.372212 3.66836e-06 0)
(0.372261 2.92482e-06 0)
(0.371842 2.68676e-06 0)
(0.371977 3.79459e-06 0)
(0.371522 8.52897e-06 0)
(0.997396 0.00364845 0)
(0.996838 0.0047542 0)
(0.996524 0.00542005 0)
(0.996334 0.00559387 0)
(0.996342 0.00555161 0)
(0.996388 0.00552529 0)
(0.996464 0.00558503 0)
(0.99647 0.00572263 0)
(0.996377 0.00588036 0)
(0.996214 0.00603993 0)
(0.995863 0.00620617 0)
(0.995372 0.00637238 0)
(0.994616 0.00654355 0)
(0.993655 0.00671185 0)
(0.992395 0.00688764 0)
(0.990796 0.00705201 0)
(0.988892 0.00721002 0)
(0.986547 0.00734332 0)
(0.983922 0.00747537 0)
(0.98075 0.00758899 0)
(0.977252 0.00767308 0)
(0.973171 0.00769899 0)
(0.968702 0.00763392 0)
(0.963753 0.00745566 0)
(0.958391 0.00706614 0)
(0.952783 0.00646695 0)
(0.946942 0.00567594 0)
(0.941164 0.00478196 0)
(0.935488 0.0039231 0)
(0.929881 0.00321624 0)
(0.924466 0.00274118 0)
(0.918886 0.00243211 0)
(0.913511 0.00224438 0)
(0.907919 0.00211623 0)
(0.902409 0.00202561 0)
(0.896796 0.00198266 0)
(0.891057 0.00196136 0)
(0.885278 0.00194843 0)
(0.879309 0.00192427 0)
(0.873245 0.00190465 0)
(0.867097 0.00188876 0)
(0.860702 0.00186424 0)
(0.85436 0.00184458 0)
(0.847621 0.00180635 0)
(0.841007 0.00175195 0)
(0.834156 0.00170465 0)
(0.827224 0.00165722 0)
(0.82032 0.00161057 0)
(0.813183 0.00156525 0)
(0.806056 0.00150291 0)
(0.798985 0.00144345 0)
(0.791603 0.0013997 0)
(0.784513 0.00133802 0)
(0.77716 0.00127444 0)
(0.769929 0.00122482 0)
(0.762748 0.00116546 0)
(0.755533 0.00110916 0)
(0.748346 0.0010635 0)
(0.741367 0.00100964 0)
(0.734108 0.000953223 0)
(0.727304 0.000899237 0)
(0.72044 0.000849972 0)
(0.713647 0.000809461 0)
(0.706949 0.000764678 0)
(0.700581 0.000707847 0)
(0.694063 0.000655764 0)
(0.688077 0.000616556 0)
(0.682004 0.000580729 0)
(0.676134 0.000542105 0)
(0.670483 0.000491803 0)
(0.66535 0.000441838 0)
(0.659952 0.000419058 0)
(0.655069 0.000398173 0)
(0.650264 0.000351426 0)
(0.645916 0.000309851 0)
(0.641537 0.000288564 0)
(0.637696 0.000264736 0)
(0.633756 0.000236102 0)
(0.630415 0.000210376 0)
(0.62698 0.000188113 0)
(0.62407 0.000169342 0)
(0.621059 0.000151603 0)
(0.618659 0.000130851 0)
(0.616048 0.000115577 0)
(0.61404 0.00010352 0)
(0.611829 8.98994e-05 0)
(0.610209 7.69844e-05 0)
(0.608332 6.74317e-05 0)
(0.607047 5.89295e-05 0)
(0.605485 4.96716e-05 0)
(0.604492 4.22109e-05 0)
(0.60319 3.59135e-05 0)
(0.602473 2.99257e-05 0)
(0.601378 2.49324e-05 0)
(0.600921 2.04817e-05 0)
(0.599976 1.7323e-05 0)
(0.599759 1.40187e-05 0)
(0.598913 1.23692e-05 0)
(0.598894 1.15949e-05 0)
(0.598089 1.91759e-05 0)
(0.997894 0.00350508 0)
(0.997312 0.00442254 0)
(0.996912 0.0051526 0)
(0.996688 0.00557522 0)
(0.996722 0.00570052 0)
(0.996906 0.00571739 0)
(0.997192 0.00574859 0)
(0.997491 0.00585979 0)
(0.997796 0.00601258 0)
(0.998126 0.00618271 0)
(0.998446 0.00636225 0)
(0.998746 0.00654209 0)
(0.999023 0.00672813 0)
(0.999254 0.0069095 0)
(0.999472 0.00710044 0)
(0.999577 0.00728138 0)
(0.999684 0.00745754 0)
(0.999667 0.00761625 0)
(0.999678 0.00776876 0)
(0.999555 0.00790887 0)
(0.999427 0.00800662 0)
(0.99918 0.00805087 0)
(0.998872 0.00798052 0)
(0.998445 0.00779295 0)
(0.99787 0.00740329 0)
(0.997121 0.00681542 0)
(0.996174 0.00605674 0)
(0.994987 0.00519797 0)
(0.993685 0.00437081 0)
(0.99209 0.00367235 0)
(0.990492 0.003189 0)
(0.988619 0.00288253 0)
(0.986846 0.00269347 0)
(0.9849 0.00258278 0)
(0.983 0.00250233 0)
(0.981029 0.00246539 0)
(0.979013 0.00244418 0)
(0.976949 0.00242592 0)
(0.974818 0.00240363 0)
(0.972523 0.00237848 0)
(0.970272 0.00236649 0)
(0.967742 0.00234559 0)
(0.965324 0.00233154 0)
(0.96257 0.00230439 0)
(0.959864 0.00225024 0)
(0.956937 0.00221481 0)
(0.953894 0.00217149 0)
(0.950779 0.00212954 0)
(0.94752 0.00209996 0)
(0.944095 0.00203307 0)
(0.940722 0.0019839 0)
(0.936978 0.00195263 0)
(0.9334 0.00188597 0)
(0.929483 0.001834 0)
(0.925592 0.00178532 0)
(0.921573 0.00171891 0)
(0.917485 0.00167089 0)
(0.913211 0.0016203 0)
(0.909075 0.00156306 0)
(0.904541 0.00151021 0)
(0.900268 0.00144277 0)
(0.895769 0.00138792 0)
(0.891278 0.00134745 0)
(0.886612 0.00128649 0)
(0.882176 0.0012204 0)
(0.8774 0.00115973 0)
(0.872932 0.00109708 0)
(0.868273 0.0010515 0)
(0.863743 0.00100775 0)
(0.859125 0.000929571 0)
(0.854886 0.000855967 0)
(0.85025 0.000826585 0)
(0.845999 0.000789175 0)
(0.841661 0.000716194 0)
(0.837637 0.000653521 0)
(0.833431 0.000614792 0)
(0.82968 0.000572778 0)
(0.8257 0.000524008 0)
(0.822192 0.000476088 0)
(0.818519 0.000435256 0)
(0.815281 0.000399418 0)
(0.811867 0.000362546 0)
(0.808995 0.00032244 0)
(0.805884 0.000291703 0)
(0.803322 0.000263884 0)
(0.800543 0.000234875 0)
(0.798316 0.000207375 0)
(0.795833 0.000185167 0)
(0.793935 0.000163848 0)
(0.791759 0.000142877 0)
(0.790179 0.000125212 0)
(0.788259 0.000109017 0)
(0.787009 9.45238e-05 0)
(0.785303 8.05451e-05 0)
(0.78439 6.91021e-05 0)
(0.782843 5.85314e-05 0)
(0.78228 4.97308e-05 0)
(0.78084 4.23011e-05 0)
(0.780614 3.77945e-05 0)
(0.779222 4.16153e-05 0)
(0.998255 0.0034875 0)
(0.997673 0.0042931 0)
(0.997221 0.00499459 0)
(0.996925 0.00552049 0)
(0.9969 0.00575509 0)
(0.997054 0.00581383 0)
(0.997363 0.0058168 0)
(0.99767 0.00587813 0)
(0.998018 0.00599928 0)
(0.998357 0.00615367 0)
(0.998736 0.00632805 0)
(0.999079 0.00650394 0)
(0.999452 0.00669249 0)