/*--------------------------------*- C++ -*----------------------------------*\
| =========                 |                                                 |
| \\      /  F ield         | OpenFOAM: The Open Source CFD Toolbox           |
|  \\    /   O peration     | Version:  v1906                                 |
|   \\  /    A nd           | Web:      www.OpenFOAM.com                      |
|    \\/     M anipulation  |                                                 |
\*---------------------------------------------------------------------------*/
FoamFile
{
    version     2.0;
    format      ascii;
    class       volScalarField;
    location    "0.5";
    object      p;
}
// * * * * * * * * * * * * * * * * * * * * * * * * * * * * * * * * * * * * * //

dimensions      [0 2 -2 0 0 0 0];


internalField   nonuniform List<scalar> 
400
(
1.0059e-13
-9.74105e-07
-2.58979e-06
-4.36823e-06
-6.23327e-06
-8.17073e-06
-1.01571e-05
-1.21735e-05
-1.42103e-05
-1.62629e-05
-1.83307e-05
-2.04154e-05
-2.25199e-05
-2.46475e-05
-2.67986e-05
-2.89637e-05
-3.1122e-05
-3.32745e-05
-3.54342e-05
-3.69415e-05
-2.67063e-07
-1.25786e-06
-2.91811e-06
-4.67035e-06
-6.47989e-06
-8.3576e-06
-1.02869e-05
-1.22492e-05
-1.42346e-05
-1.62387e-05
-1.82604e-05
-2.02993e-05
-2.23555e-05
-2.443e-05
-2.65222e-05
-2.86231e-05
-3.07114e-05
-3.28106e-05
-3.50101e-05
-3.66222e-05
-4.38926e-07
-1.36775e-06
-3.0623e-06
-4.82609e-06
-6.60998e-06
-8.45359e-06
-1.03468e-05
-1.22711e-05
-1.42176e-05
-1.61826e-05
-1.81659e-05
-2.01676e-05
-2.21866e-05
-2.42229e-05
-2.62759e-05
-2.8339e-05
-3.03933e-05
-3.24819e-05
-3.47472e-05
-3.64422e-05
-5.92753e-07
-1.40292e-06
-3.11546e-06
-4.8968e-06
-6.66658e-06
-8.48725e-06
-1.03547e-05
-1.22495e-05
-1.41639e-05
-1.60955e-05
-1.80454e-05
-2.00142e-05
-2.20015e-05
-2.40083e-05
-2.60361e-05
-2.80794e-05
-3.01208e-05
-3.22146e-05
-3.45238e-05
-3.62361e-05
-7.38089e-07
-1.41307e-06
-3.1261e-06
-4.92198e-06
-6.68048e-06
-8.48142e-06
-1.03265e-05
-1.21953e-05
-1.40808e-05
-1.59822e-05
-1.79018e-05
-1.98405e-05
-2.17979e-05
-2.37768e-05
-2.57821e-05
-2.78106e-05
-2.98451e-05
-3.19428e-05
-3.42685e-05
-3.59643e-05
-8.42794e-07
-1.38713e-06
-3.09317e-06
-4.90162e-06
-6.65166e-06
-8.43667e-06
-1.02636e-05
-1.21105e-05
-1.39707e-05
-1.58454e-05
-1.77381e-05
-1.96507e-05
-2.15824e-05
-2.35361e-05
-2.55188e-05
-2.75306e-05
-2.95553e-05
-3.16492e-05
-3.3971e-05
-3.56355e-05
-8.75931e-07
-1.30885e-06
-3.0087e-06
-4.82936e-06
-6.57454e-06
-8.34946e-06
-1.01648e-05
-1.19961e-05
-1.38368e-05
-1.56893e-05
-1.75589e-05
-1.94486e-05
-2.1359e-05
-2.32927e-05
-2.5255e-05
-2.72471e-05
-2.92552e-05
-3.13344e-05
-3.36373e-05
-3.52708e-05
-8.16457e-07
-1.1667e-06
-2.86727e-06
-4.70198e-06
-6.44768e-06
-8.2197e-06
-1.00307e-05
-1.18536e-05
-1.36817e-05
-1.55187e-05
-1.73703e-05
-1.92402e-05
-2.11315e-05
-2.30473e-05
-2.49911e-05
-2.6962e-05
-2.89472e-05
-3.10012e-05
-3.32746e-05
-3.48865e-05
-6.50366e-07
-9.53938e-07
-2.66647e-06
-4.51991e-06
-6.27376e-06
-8.05031e-06
-9.86322e-06
-1.16838e-05
-1.3506e-05
-1.53346e-05
-1.71748e-05
-1.90299e-05
-2.09038e-05
-2.2801e-05
-2.47245e-05
-2.6672e-05
-2.86306e-05
-3.06527e-05
-3.28907e-05
-3.44968e-05
-3.73854e-07
-6.70356e-07
-2.40958e-06
-4.28719e-06
-6.0561e-06
-7.84335e-06
-9.66329e-06
-1.1487e-05
-1.33095e-05
-1.5136e-05
-1.69713e-05
-1.88174e-05
-2.06772e-05
-2.25551e-05
-2.44555e-05
-2.63771e-05
-2.83073e-05
-3.02945e-05
-3.24946e-05
-3.41144e-05
5.37314e-09
-3.24219e-07
-2.10527e-06
-4.01029e-06
-5.79777e-06
-7.59971e-06
-9.43153e-06
-1.12648e-05
-1.30949e-05
-1.49261e-05
-1.67619e-05
-1.86035e-05
-2.04526e-05
-2.23131e-05
-2.419e-05
-2.6085e-05
-2.79867e-05
-2.99371e-05
-3.20978e-05
-3.37517e-05
4.71256e-07
6.90158e-08
-1.76635e-06
-3.69937e-06
-5.50634e-06
-7.32533e-06
-9.17354e-06
-1.10232e-05
-1.28684e-05
-1.47105e-05
-1.65505e-05
-1.83897e-05
-2.02306e-05
-2.20766e-05
-2.39333e-05
-2.58042e-05
-2.76785e-05
-2.95903e-05
-3.17104e-05
-3.34176e-05
1.00285e-06
4.92259e-07
-1.40602e-06
-3.36595e-06
-5.19329e-06
-7.03165e-06
-8.89954e-06
-1.07696e-05
-1.26342e-05
-1.44905e-05
-1.63366e-05
-1.81747e-05
-2.00099e-05
-2.18462e-05
-2.36883e-05
-2.5539e-05
-2.73867e-05
-2.92577e-05
-3.13363e-05
-3.31164e-05
1.57587e-06
9.28984e-07
-1.03559e-06
-3.01922e-06
-4.86835e-06
-6.72901e-06
-8.61865e-06
-1.05098e-05
-1.23929e-05
-1.42627e-05
-1.61162e-05
-1.79573e-05
-1.97928e-05
-2.16264e-05
-2.34594e-05
-2.52922e-05
-2.71127e-05
-2.89415e-05
-3.09794e-05
-3.28527e-05
2.16196e-06
1.36059e-06
-6.66851e-07
-2.66767e-06
-4.53906e-06
-6.42455e-06
-8.3371e-06
-1.02477e-05
-1.21456e-05
-1.40266e-05
-1.58902e-05
-1.77417e-05
-1.95865e-05
-2.14237e-05
-2.32504e-05
-2.50654e-05
-2.68594e-05
-2.86483e-05
-3.06497e-05
-3.26339e-05
2.7281e-06
1.76654e-06
-3.12881e-07
-2.32195e-06
-4.21401e-06
-6.12431e-06
-8.05814e-06
-9.9854e-06
-1.18957e-05
-1.37883e-05
-1.56674e-05
-1.75375e-05
-1.93974e-05
-2.12397e-05
-2.30599e-05
-2.48602e-05
-2.66336e-05
-2.83871e-05
-3.03558e-05
-3.24668e-05
3.23413e-06
2.12601e-06
1.47048e-08
-1.99328e-06
-3.90316e-06
-5.83529e-06
-7.78515e-06
-9.72505e-06
-1.16486e-05
-1.35591e-05
-1.54609e-05
-1.73531e-05
-1.92271e-05
-2.10734e-05
-2.28906e-05
-2.4683e-05
-2.64428e-05
-2.81644e-05
-3.01002e-05
-3.23437e-05
3.65387e-06
2.43515e-06
3.23522e-07
-1.67679e-06
-3.60371e-06
-5.55383e-06
-7.51601e-06
-9.46952e-06
-1.14128e-05
-1.33486e-05
-1.52762e-05
-1.71884e-05
-1.9074e-05
-2.09269e-05
-2.27492e-05
-2.45417e-05
-2.62914e-05
-2.79874e-05
-2.98923e-05
-3.22535e-05
3.98787e-06
2.74305e-06
6.74576e-07
-1.32269e-06
-3.27598e-06
-5.2503e-06
-7.23295e-06
-9.2117e-06
-1.11858e-05
-1.31522e-05
-1.51047e-05
-1.70363e-05
-1.89375e-05
-2.08031e-05
-2.26378e-05
-2.44427e-05
-2.61946e-05
-2.78732e-05
-2.97695e-05
-3.22739e-05
4.3641e-06
3.15079e-06
1.1456e-06
-8.72373e-07
-2.87449e-06
-4.89162e-06
-6.91349e-06
-8.93401e-06
-1.09506e-05
-1.29544e-05
-1.49352e-05
-1.68876e-05
-1.88105e-05
-2.07042e-05
-2.25656e-05
-2.43881e-05
-2.61552e-05
-2.78551e-05
-2.98047e-05
-3.25576e-05
)
;

boundaryField
{
    movingWall
    {
        type            zeroGradient;
    }
    bottomWall
    {
        type            zeroGradient;
    }
    leftSide
    {
        type            zeroGradient;
    }
    rightSide
    {
        type            zeroGradient;
    }
    frontAndBack
    {
        type            empty;
    }
}


// ************************************************************************* //
