/*--------------------------------*- C++ -*----------------------------------*\
| =========                 |                                                 |
| \\      /  F ield         | OpenFOAM: The Open Source CFD Toolbox           |
|  \\    /   O peration     | Version:  v1906                                 |
|   \\  /    A nd           | Web:      www.OpenFOAM.com                      |
|    \\/     M anipulation  |                                                 |
\*---------------------------------------------------------------------------*/
FoamFile
{
    version     2.0;
    format      ascii;
    class       surfaceScalarField;
    location    "0.5";
    object      phi;
}
// * * * * * * * * * * * * * * * * * * * * * * * * * * * * * * * * * * * * * //

dimensions      [0 3 -1 0 0 0 0];
oriented        oriented;


internalField   nonuniform List<scalar> 
760
(
1.22918e-06
-7.29665e-12
1.22918e-06
-6.90832e-12
1.22919e-06
-5.49028e-12
1.22919e-06
-4.3311e-12
1.2292e-06
-3.35451e-12
1.2292e-06
-2.51463e-12
1.2292e-06
-1.77478e-12
1.2292e-06
-1.1371e-12
1.2292e-06
-5.92494e-13
1.2292e-06
-1.13954e-13
1.2292e-06
3.30401e-13
1.2292e-06
7.68918e-13
1.2292e-06
1.23628e-12
1.2292e-06
1.77706e-12
1.2292e-06
2.43282e-12
1.22919e-06
3.23771e-12
1.22919e-06
4.23997e-12
1.22918e-06
5.67994e-12
1.22918e-06
8.29226e-12
1.05371e-11
3.68802e-06
-1.66998e-11
3.68802e-06
-1.64835e-11
3.68803e-06
-1.42143e-11
3.68804e-06
-1.17588e-11
3.68805e-06
-9.38318e-12
3.68805e-06
-7.17422e-12
3.68805e-06
-5.14351e-12
3.68806e-06
-3.32402e-12
3.68806e-06
-1.70563e-12
3.68806e-06
-2.38361e-13
3.68806e-06
1.15045e-12
3.68806e-06
2.54692e-12
3.68805e-06
4.04657e-12
3.68805e-06
5.75009e-12
3.68804e-06
7.75223e-12
3.68804e-06
1.01342e-11
3.68803e-06
1.29752e-11
3.68802e-06
1.6441e-11
3.688e-06
2.13643e-11
2.50682e-11
6.14835e-06
-2.38479e-11
6.14836e-06
-2.3902e-11
6.14836e-06
-2.13803e-11
6.14837e-06
-1.82386e-11
6.14838e-06
-1.48586e-11
6.14838e-06
-1.15193e-11
6.14838e-06
-8.3226e-12
6.14839e-06
-5.35961e-12
6.14839e-06
-2.6431e-12
6.14839e-06
-1.15899e-13
6.14839e-06
2.32058e-12
6.14838e-06
4.79445e-12
6.14838e-06
7.45305e-12
6.14838e-06
1.04466e-11
6.14837e-06
1.39036e-11
6.14836e-06
1.79107e-11
6.14835e-06
2.2487e-11
6.14834e-06
2.75777e-11
6.14833e-06
3.38471e-11
3.81881e-11
8.61117e-06
-2.73873e-11
8.61117e-06
-2.77085e-11
8.61117e-06
-2.53887e-11
8.61118e-06
-2.20819e-11
8.61118e-06
-1.82343e-11
8.61118e-06
-1.42295e-11
8.61119e-06
-1.0256e-11
8.61119e-06
-6.45691e-12
8.61119e-06
-2.87695e-12
8.61119e-06
5.26455e-13
8.61119e-06
3.86141e-12
8.61118e-06
7.2777e-12
8.61118e-06
1.09477e-11
8.61117e-06
1.50434e-11
8.61117e-06
1.97014e-11
8.61116e-06
2.4979e-11
8.61115e-06
3.08047e-11
8.61114e-06
3.69109e-11
8.61113e-06
4.38804e-11
4.85163e-11
1.10774e-05
-2.72322e-11
1.10774e-05
-2.77509e-11
1.10774e-05
-2.58375e-11
1.10774e-05
-2.27069e-11
1.10774e-05
-1.8843e-11
1.10774e-05
-1.4651e-11
1.10774e-05
-1.03599e-11
1.10774e-05
-6.14464e-12
1.10774e-05
-2.07768e-12
1.10774e-05
1.86524e-12
1.10774e-05
5.78696e-12
1.10774e-05
9.83951e-12
1.10774e-05
1.41956e-11
1.10774e-05
1.9023e-11
1.10774e-05
2.44464e-11
1.10774e-05
3.0482e-11
1.10774e-05
3.69771e-11
1.10774e-05
4.35288e-11
1.10773e-05
5.07559e-11
5.55751e-11
1.35479e-05
-2.36441e-11
1.35479e-05
-2.42893e-11
1.35478e-05
-2.28754e-11
1.35478e-05
-2.01142e-11
1.35478e-05
-1.65685e-11
1.35478e-05
-1.26015e-11
1.35478e-05
-8.43431e-12
1.35478e-05
-4.24456e-12
1.35478e-05
-1.17236e-13
1.35478e-05
3.95652e-12
1.35478e-05
8.06691e-12
1.35478e-05
1.23552e-11
1.35478e-05
1.69794e-11
1.35478e-05
2.20881e-11
1.35478e-05
2.77802e-11
1.35478e-05
3.40392e-11
1.35478e-05
4.06658e-11
1.35478e-05
4.72097e-11
1.35478e-05
5.4376e-11
5.93063e-11
1.60233e-05
-1.71483e-11
1.60233e-05
-1.78591e-11
1.60233e-05
-1.69806e-11
1.60233e-05
-1.46828e-11
1.60233e-05
-1.16821e-11
1.60233e-05
-8.26142e-12
1.60233e-05
-4.59662e-12
1.60233e-05
-8.39189e-13
1.60233e-05
2.93474e-12
1.60233e-05
6.72861e-12
1.60233e-05
1.06182e-11
1.60233e-05
1.47256e-11
1.60233e-05
1.91844e-11
1.60233e-05
2.41194e-11
1.60232e-05
2.96041e-11
1.60232e-05
3.56065e-11
1.60232e-05
4.19168e-11
1.60232e-05
4.81041e-11
1.60232e-05
5.49755e-11
5.99533e-11
1.85043e-05
-8.4438e-12
1.85043e-05
-9.17625e-12
1.85043e-05
-8.83429e-12
1.85043e-05
-7.03833e-12
1.85043e-05
-4.72463e-12
1.85043e-05
-2.08048e-12
1.85043e-05
7.86529e-13
1.85043e-05
3.77593e-12
1.85043e-05
6.84051e-12
1.85043e-05
9.99137e-12
1.85043e-05
1.32931e-11
1.85043e-05
1.68455e-11
1.85043e-05
2.07551e-11
1.85043e-05
2.51209e-11
1.85043e-05
2.99961e-11
1.85043e-05
3.53482e-11
1.85043e-05
4.09957e-11
1.85043e-05
4.6569e-11
1.85043e-05
5.29728e-11
5.79287e-11
2.09914e-05
1.64786e-12
2.09914e-05
9.3398e-13
2.09914e-05
7.50941e-13
2.09914e-05
2.03416e-12
2.09914e-05
3.57725e-12
2.09914e-05
5.29582e-12
2.09914e-05
7.16062e-12
2.09914e-05
9.13975e-12
2.09914e-05
1.12291e-11
2.09914e-05
1.34589e-11
2.09914e-05
1.58887e-11
2.09914e-05
1.8596e-11
2.09914e-05
2.16606e-11
2.09914e-05
2.51577e-11
2.09914e-05
2.91277e-11
2.09914e-05
3.35477e-11
2.09914e-05
3.82872e-11
2.09914e-05
4.30659e-11
2.09914e-05
4.88755e-11
5.37408e-11
2.34849e-05
1.2242e-11
2.34849e-05
1.15753e-11
2.34849e-05
1.08839e-11
2.34849e-05
1.16484e-11
2.34849e-05
1.23796e-11
2.34848e-05
1.30936e-11
2.34848e-05
1.38437e-11
2.34848e-05
1.4675e-11
2.34848e-05
1.56339e-11
2.34848e-05
1.6775e-11
2.34848e-05
1.81584e-11
2.34848e-05
1.98412e-11
2.34848e-05
2.18789e-11
2.34848e-05
2.43249e-11
2.34848e-05
2.72118e-11
2.34848e-05
3.05346e-11
2.34848e-05
3.42229e-11
2.34848e-05
3.81009e-11
2.34848e-05
4.32265e-11
4.7949e-11
2.59849e-05
2.24299e-11
2.59849e-05
2.18136e-11
2.59849e-05
2.06366e-11
2.59849e-05
2.08708e-11
2.59849e-05
2.07812e-11
2.59849e-05
2.04764e-11
2.59849e-05
2.00906e-11
2.59849e-05
1.97452e-11
2.59848e-05
1.95375e-11
2.59848e-05
1.95461e-11
2.59848e-05
1.98327e-11
2.59848e-05
2.04359e-11
2.59848e-05
2.13886e-11
2.59848e-05
2.27248e-11
2.59848e-05
2.44719e-11
2.59849e-05
2.66475e-11
2.59849e-05
2.92415e-11
2.59849e-05
3.21861e-11
2.59849e-05
3.65814e-11
4.1122e-11
2.84915e-05
3.13081e-11
2.84914e-05
3.07346e-11
2.84914e-05
2.9086e-11
2.84914e-05
2.87726e-11
2.84914e-05
2.78804e-11
2.84914e-05
2.66078e-11
2.84914e-05
2.5157e-11
2.84914e-05
2.37157e-11
2.84914e-05
2.24257e-11
2.84914e-05
2.13834e-11
2.84914e-05
2.06484e-11
2.84914e-05
2.02425e-11
2.84914e-05
2.0177e-11
2.84914e-05
2.04669e-11
2.84914e-05
2.11339e-11
2.84914e-05
2.22181e-11
2.84914e-05
2.37672e-11
2.84914e-05
2.58145e-11
2.84914e-05
2.9487e-11
3.38103e-11
3.10044e-05
3.80324e-11
3.10044e-05
3.74879e-11
3.10044e-05
3.53633e-11
3.10044e-05
3.44812e-11
3.10044e-05
3.28372e-11
3.10044e-05
3.07173e-11
3.10044e-05
2.83672e-11
3.10043e-05
2.60218e-11
3.10043e-05
2.38506e-11
3.10043e-05
2.1958e-11
3.10043e-05
2.03942e-11
3.10043e-05
1.91641e-11
3.10044e-05
1.82593e-11
3.10044e-05
1.7675e-11
3.10044e-05
1.74241e-11
3.10044e-05
1.75645e-11
3.10044e-05
1.81972e-11
3.10044e-05
1.94451e-11
3.10044e-05
2.24509e-11
2.6544e-11
3.35234e-05
4.18731e-11
3.35234e-05
4.13187e-11
3.35234e-05
3.87072e-11
3.35234e-05
3.72442e-11
3.35233e-05
3.49513e-11
3.35233e-05
3.21859e-11
3.35233e-05
2.92026e-11
3.35233e-05
2.62501e-11
3.35233e-05
2.35031e-11
3.35233e-05
2.10609e-11
3.35233e-05
1.89573e-11
3.35234e-05
1.718e-11
3.35234e-05
1.57022e-11
3.35234e-05
1.44992e-11
3.35234e-05
1.35705e-11
3.35234e-05
1.29862e-11
3.35234e-05
1.28931e-11
3.35234e-05
1.34971e-11
3.35234e-05
1.59341e-11
1.98206e-11
3.60479e-05
4.2258e-11
3.60479e-05
4.16221e-11
3.60479e-05
3.85336e-11
3.60479e-05
3.65229e-11
3.60479e-05
3.37696e-11
3.60479e-05
3.06527e-11
3.60479e-05
2.73971e-11
3.60479e-05
2.42238e-11
3.60479e-05
2.12863e-11
3.60479e-05
1.86642e-11
3.60479e-05
1.63716e-11
3.60479e-05
1.43797e-11
3.60479e-05
1.26459e-11
3.60479e-05
1.11267e-11
3.60479e-05
9.8075e-12
3.6048e-05
8.76607e-12
3.6048e-05
8.1834e-12
3.6048e-05
8.34072e-12
3.6048e-05
1.03497e-11
1.40665e-11
3.85775e-05
3.88412e-11
3.85775e-05
3.80321e-11
3.85775e-05
3.45433e-11
3.85775e-05
3.21204e-11
3.85775e-05
2.92163e-11
3.85775e-05
2.6146e-11
3.85775e-05
2.30524e-11
3.85775e-05
2.00912e-11
3.85775e-05
1.73776e-11
3.85775e-05
1.49653e-11
3.85775e-05
1.2849e-11
3.85775e-05
1.0984e-11
3.85775e-05
9.31583e-12
3.85775e-05
7.78957e-12
3.85775e-05
6.38048e-12
3.85775e-05
5.17194e-12
3.85775e-05
4.3648e-12
3.85775e-05
4.27869e-12
3.85775e-05
6.00693e-12
9.62865e-12
4.11112e-05
3.16325e-11
4.11112e-05
3.05546e-11
4.11112e-05
2.68957e-11
4.11112e-05
2.43829e-11
4.11112e-05
2.17722e-11
4.11113e-05
1.92137e-11
4.11113e-05
1.67288e-11
4.11113e-05
1.43958e-11
4.11113e-05
1.22824e-11
4.11113e-05
1.04204e-11
4.11113e-05
8.7907e-12
4.11113e-05
7.33603e-12
4.11113e-05
6.00552e-12
4.11113e-05
4.75753e-12
4.11113e-05
3.55004e-12
4.11113e-05
2.42971e-12
4.11113e-05
1.62814e-12
4.11113e-05
1.54349e-12
4.11113e-05
3.17696e-12
6.72187e-12
4.36484e-05
2.11872e-11
4.36484e-05
1.99215e-11
4.36484e-05
1.65449e-11
4.36484e-05
1.44726e-11
4.36484e-05
1.26581e-11
4.36484e-05
1.10336e-11
4.36484e-05
9.50778e-12
4.36484e-05
8.09641e-12
4.36485e-05
6.82453e-12
4.36485e-05
5.71148e-12
4.36485e-05
4.74642e-12
4.36485e-05
3.88498e-12
4.36485e-05
3.07995e-12
4.36485e-05
2.28526e-12
4.36485e-05
1.47487e-12
4.36485e-05
7.03487e-13
4.36485e-05
1.4435e-13
4.36485e-05
2.08662e-13
4.36485e-05
1.92003e-12
5.22999e-12
4.6188e-05
8.97285e-12
4.6188e-05
7.99353e-12
4.61881e-05
5.88365e-12
4.61881e-05
4.82931e-12
4.61881e-05
4.12405e-12
4.61881e-05
3.56323e-12
4.61881e-05
3.04788e-12
4.61881e-05
2.56647e-12
4.61881e-05
2.12955e-12
4.61881e-05
1.76063e-12
4.61881e-05
1.44974e-12
4.61881e-05
1.15541e-12
4.61881e-05
8.72169e-13
4.61881e-05
6.0516e-13
4.61881e-05
3.09389e-13
4.61881e-05
-1.36403e-14
4.61881e-05
-2.20025e-13
4.61881e-05
3.55162e-14
4.61881e-05
1.5773e-12
4.77396e-12
4.87292e-05
4.87292e-05
4.87292e-05
4.87292e-05
4.87292e-05
4.87292e-05
4.87292e-05
4.87292e-05
4.87292e-05
4.87292e-05
4.87292e-05
4.87292e-05
4.87292e-05
4.87292e-05
4.87292e-05
4.87292e-05
4.87292e-05
4.87292e-05
4.87292e-05
)
;

boundaryField
{
    movingWall
    {
        type            calculated;
        value           uniform 0;
    }
    bottomWall
    {
        type            calculated;
        value           uniform 0;
    }
    leftSide
    {
        type            calculated;
        value           nonuniform List<scalar> 
20
(
-1.22917e-06
-3.68801e-06
-6.14834e-06
-8.61116e-06
-1.10774e-05
-1.35479e-05
-1.60233e-05
-1.85043e-05
-2.09914e-05
-2.34849e-05
-2.59849e-05
-2.84915e-05
-3.10044e-05
-3.35234e-05
-3.60479e-05
-3.85774e-05
-4.11112e-05
-4.36484e-05
-4.6188e-05
-4.87292e-05
)
;
    }
    rightSide
    {
        type            calculated;
        value           nonuniform List<scalar> 
20
(
1.22916e-06
3.68799e-06
6.14832e-06
8.61112e-06
1.10773e-05
1.35478e-05
1.60232e-05
1.85043e-05
2.09914e-05
2.34849e-05
2.59849e-05
2.84914e-05
3.10044e-05
3.35234e-05
3.6048e-05
3.85775e-05
4.11113e-05
4.36485e-05
4.61881e-05
4.87292e-05
)
;
    }
    frontAndBack
    {
        type            empty;
        value           nonuniform 0();
    }
}


// ************************************************************************* //
