/*--------------------------------*- C++ -*----------------------------------*\
| =========                 |                                                 |
| \\      /  F ield         | OpenFOAM: The Open Source CFD Toolbox           |
|  \\    /   O peration     | Version:  v1906                                 |
|   \\  /    A nd           | Web:      www.OpenFOAM.com                      |
|    \\/     M anipulation  |                                                 |
\*---------------------------------------------------------------------------*/
FoamFile
{
    version     2.0;
    format      ascii;
    class       volVectorField;
    location    "0.5";
    object      U;
}
// * * * * * * * * * * * * * * * * * * * * * * * * * * * * * * * * * * * * * //

dimensions      [0 1 -1 0 0 0 0];


internalField   nonuniform List<vector> 
400
(
(0.0245835 -7.59841e-08 0)
(0.0245836 -6.58893e-08 0)
(0.0245837 -5.17214e-08 0)
(0.0245838 -3.94482e-08 0)
(0.0245839 -2.97881e-08 0)
(0.024584 -2.18966e-08 0)
(0.024584 -1.51954e-08 0)
(0.024584 -9.60971e-09 0)
(0.0245841 -5.01238e-09 0)
(0.0245841 -1.1164e-09 0)
(0.0245841 2.42381e-09 0)
(0.024584 5.85608e-09 0)
(0.024584 9.50984e-09 0)
(0.024584 1.38758e-08 0)
(0.024584 1.93386e-08 0)
(0.0245839 2.60889e-08 0)
(0.0245838 3.46718e-08 0)
(0.0245837 4.83108e-08 0)
(0.0245836 7.38063e-08 0)
(0.0245834 1.05748e-07 0)
(0.0737602 -2.40544e-07 0)
(0.0737604 -2.35377e-07 0)
(0.0737606 -1.95601e-07 0)
(0.0737608 -1.57864e-07 0)
(0.0737609 -1.23844e-07 0)
(0.073761 -9.35772e-08 0)
(0.0737611 -6.65439e-08 0)
(0.0737611 -4.29223e-08 0)
(0.0737612 -2.23916e-08 0)
(0.0737612 -4.14815e-09 0)
(0.0737612 1.28476e-08 0)
(0.0737611 2.97596e-08 0)
(0.0737611 4.78844e-08 0)
(0.073761 6.86946e-08 0)
(0.0737609 9.35966e-08 0)
(0.0737608 1.23826e-07 0)
(0.0737607 1.61023e-07 0)
(0.0737605 2.10296e-07 0)
(0.0737602 2.89052e-07 0)
(0.0737599 3.47152e-07 0)
(0.122967 -4.20876e-07 0)
(0.122967 -4.17679e-07 0)
(0.122967 -3.67068e-07 0)
(0.122967 -3.0858e-07 0)
(0.122967 -2.48735e-07 0)
(0.122968 -1.91565e-07 0)
(0.122968 -1.38048e-07 0)
(0.122968 -8.93752e-08 0)
(0.122968 -4.55496e-08 0)
(0.122968 -5.34404e-09 0)
(0.122968 3.30414e-08 0)
(0.122968 7.17246e-08 0)
(0.122968 1.1322e-07 0)
(0.122968 1.60171e-07 0)
(0.122967 2.14978e-07 0)
(0.122967 2.79526e-07 0)
(0.122967 3.55032e-07 0)
(0.122967 4.42703e-07 0)
(0.122967 5.57886e-07 0)
(0.122966 6.41788e-07 0)
(0.172223 -5.32187e-07 0)
(0.172223 -5.35258e-07 0)
(0.172223 -4.85078e-07 0)
(0.172224 -4.18467e-07 0)
(0.172224 -3.43665e-07 0)
(0.172224 -2.67762e-07 0)
(0.172224 -1.93843e-07 0)
(0.172224 -1.24311e-07 0)
(0.172224 -5.97015e-08 0)
(0.172224 9.96898e-10 0)
(0.172224 5.99696e-08 0)
(0.172224 1.20124e-07 0)
(0.172224 1.84749e-07 0)
(0.172224 2.57088e-07 0)
(0.172223 3.39873e-07 0)
(0.172223 4.34784e-07 0)
(0.172223 5.4138e-07 0)
(0.172223 6.56266e-07 0)
(0.172223 7.91492e-07 0)
(0.172223 8.8247e-07 0)
(0.221548 -5.66049e-07 0)
(0.221548 -5.73776e-07 0)
(0.221548 -5.30536e-07 0)
(0.221548 -4.64812e-07 0)
(0.221548 -3.85706e-07 0)
(0.221548 -3.01381e-07 0)
(0.221548 -2.16306e-07 0)
(0.221548 -1.33846e-07 0)
(0.221548 -5.5227e-08 0)
(0.221548 2.02246e-08 0)
(0.221548 9.46703e-08 0)
(0.221548 1.71246e-07 0)
(0.221548 2.53565e-07 0)
(0.221548 3.4512e-07 0)
(0.221547 4.48463e-07 0)
(0.221547 5.64228e-07 0)
(0.221547 6.90106e-07 0)
(0.221547 8.19076e-07 0)
(0.221547 9.63087e-07 0)
(0.221547 1.05891e-06 0)
(0.270957 -5.25914e-07 0)
(0.270957 -5.37293e-07 0)
(0.270957 -5.0348e-07 0)
(0.270957 -4.43872e-07 0)
(0.270957 -3.68372e-07 0)
(0.270957 -2.84887e-07 0)
(0.270957 -1.98166e-07 0)
(0.270957 -1.11877e-07 0)
(0.270957 -2.76986e-08 0)
(0.270957 5.46454e-08 0)
(0.270957 1.37079e-07 0)
(0.270957 2.22567e-07 0)
(0.270957 3.14506e-07 0)
(0.270956 4.16198e-07 0)
(0.270956 5.29951e-07 0)
(0.270956 6.55542e-07 0)
(0.270956 7.8922e-07 0)
(0.270956 9.22109e-07 0)
(0.270956 1.06751e-06 0)
(0.270956 1.16584e-06 0)
(0.320466 -4.21702e-07 0)
(0.320466 -4.35023e-07 0)
(0.320466 -4.119e-07 0)
(0.320466 -3.60916e-07 0)
(0.320466 -2.94475e-07 0)
(0.320465 -2.19198e-07 0)
(0.320465 -1.39191e-07 0)
(0.320465 -5.78354e-08 0)
(0.320465 2.31725e-08 0)
(0.320465 1.03897e-07 0)
(0.320465 1.85978e-07 0)
(0.320465 2.72019e-07 0)
(0.320465 3.64897e-07 0)
(0.320465 4.67368e-07 0)
(0.320465 5.81272e-07 0)
(0.320465 7.06132e-07 0)
(0.320465 8.37559e-07 0)
(0.320465 9.66453e-07 0)
(0.320465 1.10798e-06 0)
(0.320465 1.20776e-06 0)
(0.370087 -2.65487e-07 0)
(0.370087 -2.79784e-07 0)
(0.370086 -2.67497e-07 0)
(0.370086 -2.2639e-07 0)
(0.370086 -1.72665e-07 0)
(0.370086 -1.11099e-07 0)
(0.370086 -4.45741e-08 0)
(0.370086 2.43083e-08 0)
(0.370086 9.42385e-08 0)
(0.370086 1.65305e-07 0)
(0.370086 2.38908e-07 0)
(0.370085 3.17271e-07 0)
(0.370085 4.02736e-07 0)
(0.370085 4.97476e-07 0)
(0.370085 6.02732e-07 0)
(0.370085 7.1793e-07 0)
(0.370085 8.39064e-07 0)
(0.370085 9.57899e-07 0)
(0.370085 1.09152e-06 0)
(0.370085 1.19151e-06 0)
(0.419829 -7.26479e-08 0)
(0.419828 -8.72932e-08 0)
(0.419828 -8.56843e-08 0)
(0.419828 -5.4906e-08 0)
(0.419828 -1.61269e-08 0)
(0.419828 2.79978e-08 0)
(0.419828 7.60889e-08 0)
(0.419827 1.26744e-07 0)
(0.419827 1.79368e-07 0)
(0.419827 2.343e-07 0)
(0.419827 2.92754e-07 0)
(0.419827 3.56546e-07 0)
(0.419827 4.2755e-07 0)
(0.419827 5.07466e-07 0)
(0.419827 5.97153e-07 0)
(0.419827 6.9601e-07 0)
(0.419827 8.00898e-07 0)
(0.419827 9.05209e-07 0)
(0.419827 1.02794e-06 0)
(0.419827 1.12667e-06 0)
(0.469698 1.39175e-07 0)
(0.469698 1.25164e-07 0)
(0.469698 1.1626e-07 0)
(0.469697 1.36677e-07 0)
(0.469697 1.59411e-07 0)
(0.469697 1.83892e-07 0)
(0.469697 2.10376e-07 0)
(0.469697 2.38948e-07 0)
(0.469697 2.69973e-07 0)
(0.469697 3.04248e-07 0)
(0.469697 3.42914e-07 0)
(0.469697 3.87339e-07 0)
(0.469697 4.38948e-07 0)
(0.469697 4.99048e-07 0)
(0.469697 5.68319e-07 0)
(0.469697 6.46376e-07 0)
(0.469697 7.31164e-07 0)
(0.469697 8.18093e-07 0)
(0.469697 9.27815e-07 0)
(0.469697 1.02396e-06 0)
(0.519698 3.51854e-07 0)
(0.519698 3.38814e-07 0)
(0.519698 3.19902e-07 0)
(0.519698 3.29897e-07 0)
(0.519697 3.36253e-07 0)
(0.519697 3.4023e-07 0)
(0.519697 3.43725e-07 0)
(0.519697 3.4842e-07 0)
(0.519697 3.5576e-07 0)
(0.519697 3.6711e-07 0)
(0.519697 3.8368e-07 0)
(0.519697 4.06419e-07 0)
(0.519697 4.36243e-07 0)
(0.519697 4.74073e-07 0)
(0.519697 5.20496e-07 0)
(0.519697 5.75548e-07 0)
(0.519697 6.38374e-07 0)
(0.519697 7.06571e-07 0)
(0.519697 8.01884e-07 0)
(0.519697 8.94721e-07 0)
(0.569829 5.47127e-07 0)
(0.569829 5.34795e-07 0)
(0.569829 5.06386e-07 0)
(0.569829 5.05657e-07 0)
(0.569829 4.95712e-07 0)
(0.569828 4.7954e-07 0)
(0.569828 4.60536e-07 0)
(0.569828 4.41865e-07 0)
(0.569828 4.26007e-07 0)
(0.569828 4.14816e-07 0)
(0.569828 4.09594e-07 0)
(0.569828 4.10936e-07 0)
(0.569828 4.19237e-07 0)
(0.569828 4.34955e-07 0)
(0.569828 4.58568e-07 0)
(0.569828 4.90632e-07 0)
(0.569828 5.31556e-07 0)
(0.569829 5.81114e-07 0)
(0.569829 6.61632e-07 0)
(0.569829 7.50531e-07 0)
(0.620088 7.0729e-07 0)
(0.620088 6.95615e-07 0)
(0.620087 6.57755e-07 0)
(0.620087 6.45816e-07 0)
(0.620087 6.20104e-07 0)
(0.620087 5.85412e-07 0)
(0.620087 5.46309e-07 0)
(0.620087 5.07105e-07 0)
(0.620087 4.71057e-07 0)
(0.620087 4.40314e-07 0)
(0.620087 4.16101e-07 0)
(0.620087 3.98682e-07 0)
(0.620087 3.87978e-07 0)
(0.620087 3.83993e-07 0)
(0.620087 3.87068e-07 0)
(0.620087 3.98274e-07 0)
(0.620087 4.19228e-07 0)
(0.620087 4.51608e-07 0)
(0.620088 5.18102e-07 0)
(0.620088 6.02236e-07 0)
(0.670467 8.16484e-07 0)
(0.670467 8.05054e-07 0)
(0.670467 7.57506e-07 0)
(0.670467 7.33956e-07 0)
(0.670467 6.93851e-07 0)
(0.670467 6.4372e-07 0)
(0.670467 5.88766e-07 0)
(0.670467 5.34017e-07 0)
(0.670467 4.8304e-07 0)
(0.670467 4.37972e-07 0)
(0.670467 3.99708e-07 0)
(0.670467 3.6814e-07 0)
(0.670467 3.42822e-07 0)
(0.670467 3.23412e-07 0)
(0.670467 3.10122e-07 0)
(0.670467 3.04407e-07 0)
(0.670467 3.0883e-07 0)
(0.670467 3.26602e-07 0)
(0.670468 3.80557e-07 0)
(0.670468 4.60094e-07 0)
(0.720958 8.6137e-07 0)
(0.720958 8.48973e-07 0)
(0.720958 7.91594e-07 0)
(0.720958 7.56473e-07 0)
(0.720958 7.04731e-07 0)
(0.720958 6.4409e-07 0)
(0.720958 5.79541e-07 0)
(0.720959 5.16117e-07 0)
(0.720959 4.5728e-07 0)
(0.720959 4.04833e-07 0)
(0.720959 3.59125e-07 0)
(0.720959 3.19631e-07 0)
(0.720959 2.85657e-07 0)
(0.720959 2.5665e-07 0)
(0.720959 2.32628e-07 0)
(0.720959 2.1513e-07 0)
(0.720959 2.07312e-07 0)
(0.720959 2.13838e-07 0)
(0.720959 2.57333e-07 0)
(0.720959 3.3325e-07 0)
(0.771549 8.32562e-07 0)
(0.771549 8.17216e-07 0)
(0.771549 7.50474e-07 0)
(0.771549 7.05135e-07 0)
(0.771549 6.46669e-07 0)
(0.771549 5.82451e-07 0)
(0.771549 5.16555e-07 0)
(0.77155 4.52972e-07 0)
(0.77155 3.9452e-07 0)
(0.77155 3.42424e-07 0)
(0.77155 2.96544e-07 0)
(0.77155 2.56089e-07 0)
(0.77155 2.20286e-07 0)
(0.77155 1.88366e-07 0)
(0.77155 1.59827e-07 0)
(0.77155 1.35916e-07 0)
(0.77155 1.20485e-07 0)
(0.77155 1.20203e-07 0)
(0.77155 1.56825e-07 0)
(0.77155 2.28814e-07 0)
(0.822224 7.23486e-07 0)
(0.822224 7.04315e-07 0)
(0.822225 6.30782e-07 0)
(0.822225 5.79374e-07 0)
(0.822225 5.21811e-07 0)
(0.822225 4.63164e-07 0)
(0.822225 4.05415e-07 0)
(0.822225 3.50857e-07 0)
(0.822225 3.01105e-07 0)
(0.822226 2.568e-07 0)
(0.822226 2.17766e-07 0)
(0.822226 1.83275e-07 0)
(0.822226 1.52266e-07 0)
(0.822226 1.23349e-07 0)
(0.822226 9.581e-08 0)
(0.822226 7.14508e-08 0)
(0.822226 5.44015e-08 0)
(0.822226 5.1398e-08 0)
(0.822226 8.40544e-08 0)
(0.822226 1.55474e-07 0)
(0.872968 5.41787e-07 0)
(0.872968 5.14789e-07 0)
(0.872968 4.41219e-07 0)
(0.872968 3.92828e-07 0)
(0.872968 3.466e-07 0)
(0.872969 3.03536e-07 0)
(0.872969 2.62621e-07 0)
(0.872969 2.24521e-07 0)
(0.872969 1.90032e-07 0)
(0.872969 1.59727e-07 0)
(0.872969 1.33348e-07 0)
(0.872969 1.09744e-07 0)
(0.872969 8.79193e-08 0)
(0.872969 6.71444e-08 0)
(0.872969 4.63431e-08 0)
(0.87297 2.61542e-08 0)
(0.87297 1.16655e-08 0)
(0.87297 1.1435e-08 0)
(0.87297 4.53749e-08 0)
(0.872969 1.19401e-07 0)
(0.923761 2.94136e-07 0)
(0.923761 2.75726e-07 0)
(0.923761 2.15708e-07 0)
(0.923761 1.82415e-07 0)
(0.923761 1.56884e-07 0)
(0.923762 1.35736e-07 0)
(0.923762 1.16276e-07 0)
(0.923762 9.82284e-08 0)
(0.923762 8.18793e-08 0)
(0.923762 6.77656e-08 0)
(0.923762 5.57931e-08 0)
(0.923762 4.50735e-08 0)
(0.923762 3.48363e-08 0)
(0.923762 2.4388e-08 0)
(0.923762 1.32135e-08 0)
(0.923762 2.13125e-09 0)
(0.923762 -5.69584e-09 0)
(0.923762 -1.13558e-09 0)
(0.923762 3.59441e-08 0)
(0.923762 1.01551e-07 0)
(0.974584 9.39011e-08 0)
(0.974584 7.06954e-08 0)
(0.974584 5.05627e-08 0)
(0.974584 3.91255e-08 0)
(0.974584 3.26187e-08 0)
(0.974584 2.80551e-08 0)
(0.974584 2.38061e-08 0)
(0.974584 1.95174e-08 0)
(0.974584 1.55711e-08 0)
(0.974584 1.26374e-08 0)
(0.974584 1.05487e-08 0)
(0.974584 8.34267e-09 0)
(0.974584 5.78414e-09 0)
(0.974584 3.24152e-09 0)
(0.974584 3.8373e-10 0)
(0.974584 -2.67732e-09 0)
(0.974584 -4.66823e-09 0)
(0.974584 -1.96245e-09 0)
(0.974584 1.5804e-08 0)
(0.974584 5.31692e-08 0)
)
;

boundaryField
{
    movingWall
    {
        type            fixedValue;
        value           uniform (1 0 0);
    }
    bottomWall
    {
        type            noSlip;
    }
    leftSide
    {
        type            zeroGradient;
    }
    rightSide
    {
        type            zeroGradient;
    }
    frontAndBack
    {
        type            empty;
    }
}


// ************************************************************************* //
