/*--------------------------------*- C++ -*----------------------------------*\
| =========                 |                                                 |
| \\      /  F ield         | OpenFOAM: The Open Source CFD Toolbox           |
|  \\    /   O peration     | Version:  v1906                                 |
|   \\  /    A nd           | Web:      www.OpenFOAM.com                      |
|    \\/     M anipulation  |                                                 |
\*---------------------------------------------------------------------------*/
FoamFile
{
    version     2.0;
    format      ascii;
    class       volScalarField;
    location    "1500";
    object      alphat;
}
// * * * * * * * * * * * * * * * * * * * * * * * * * * * * * * * * * * * * * //

dimensions      [1 -1 -1 0 0 0 0];


internalField   nonuniform List<scalar> 
2000
(
0.000512608
0.000370213
0.000315557
0.000287496
0.000268836
0.000253354
0.000239245
0.000225672
0.000212176
0.000198446
0.000184493
0.000169713
0.000150742
0.000120612
9.2196e-05
4.6185e-05
5.69329e-05
6.84942e-05
7.78816e-05
8.48248e-05
9.11057e-05
9.51077e-05
9.73913e-05
9.78226e-05
9.71871e-05
9.40025e-05
8.61165e-05
7.42384e-05
6.78115e-05
6.83505e-05
8.05988e-05
9.67777e-05
0.000109661
0.000119505
0.000128091
0.000134588
0.000139846
0.000144031
0.0001474
0.000150108
0.000152305
0.000154093
0.00015553
0.000156704
0.000157764
0.000158933
0.00016037
0.000162054
0.000163889
0.000166811
0.0100598
0.00431723
0.00340447
0.00305996
0.00282918
0.00263469
0.00245959
0.00229812
0.002146
0.00200019
0.00185386
0.00169302
0.00148268
0.00103821
0.000190797
7.69693e-05
0.000330846
0.000458251
0.000595655
0.000716608
0.000818222
0.00089406
0.000943119
0.000958701
0.000925403
0.000833685
0.00066817
0.0004286
9.97144e-05
0.000105521
0.000415385
0.000622264
0.000825573
0.000994519
0.00113553
0.00124865
0.00134154
0.00141913
0.0014832
0.00153648
0.00158087
0.00161808
0.00164919
0.0016753
0.00169753
0.00171514
0.00172877
0.00174139
0.00175836
0.00176921
0.0365389
0.0136852
0.00938241
0.0077674
0.00686432
0.00621902
0.00570175
0.005253
0.00484125
0.00444317
0.00402942
0.0035491
0.00288917
0.00177667
0.00023614
9.79326e-05
0.000660845
0.000948624
0.00119682
0.00140671
0.00157855
0.00169695
0.00175304
0.00174539
0.00164664
0.00145023
0.00114488
0.000751086
0.000112767
0.000130063
0.000857946
0.00128182
0.00165981
0.00198942
0.00227766
0.0025247
0.00273495
0.00291427
0.00306604
0.00319445
0.00330295
0.00339462
0.00347188
0.00353693
0.00359151
0.00363621
0.00367245
0.00370352
0.00373193
0.0037473
0.0599911
0.0265782
0.0173985
0.0136832
0.0116652
0.010306
0.00928099
0.00842533
0.00765797
0.00692163
0.00615523
0.00526709
0.00409157
0.00234795
0.000269992
0.000113084
0.00089569
0.00135894
0.00169914
0.00197211
0.00218023
0.00231062
0.00234574
0.00229954
0.00213152
0.00184397
0.001436
0.000913895
0.000121897
0.000147749
0.00117956
0.0018405
0.00238216
0.00285757
0.00327985
0.00365108
0.0039745
0.00425508
0.00449688
0.00470456
0.0048823
0.00503397
0.00516287
0.00527189
0.00536342
0.005439
0.00550047
0.00555012
0.00558819
0.00560666
0.0741481
0.0395704
0.026398
0.0203554
0.0169694
0.0147339
0.0130638
0.0117076
0.0105097
0.00936996
0.00819086
0.00684373
0.00513219
0.0028081
0.000297956
0.00012462
0.00106323
0.00168727
0.00210877
0.00242623
0.00265861
0.00279643
0.00280514
0.00272198
0.00248804
0.00210956
0.00159542
0.000968962
0.00012738
0.000160311
0.00138644
0.00227618
0.00297431
0.00358304
0.00412776
0.00461361
0.00504343
0.00542119
0.005751
0.00603748
0.00628515
0.00649829
0.00668071
0.00683574
0.00696612
0.00707392
0.00716102
0.00722873
0.0072762
0.00729727
0.0825123
0.0507481
0.0353383
0.0272937
0.0225284
0.0193353
0.016962
0.015034
0.0133514
0.0117604
0.0101271
0.00829293
0.00605383
0.00319376
0.00032065
0.000133832
0.00118651
0.00194549
0.002437
0.00279259
0.00304424
0.00318619
0.003179
0.00305853
0.00276703
0.00230529
0.00168836
0.000969497
0.000130267
0.000169596
0.00152347
0.00259537
0.00343766
0.00417065
0.00482991
0.00542357
0.00595438
0.00642537
0.00684036
0.00720386
0.00752056
0.00779494
0.00803107
0.00823251
0.00840222
0.00854245
0.00865493
0.00874032
0.00879731
0.00882106
0.0877486
0.0597206
0.0435408
0.0340661
0.0280881
0.0239634
0.0208638
0.0183448
0.0161406
0.0140683
0.0119564
0.009627
0.00687402
0.00351916
0.000339737
0.000141569
0.00128529
0.00214765
0.00270183
0.003093
0.00336538
0.00351681
0.00350612
0.00335585
0.00301999
0.0024851
0.00176616
0.000944113
0.000132685
0.000176393
0.00160558
0.00280799
0.00377943
0.00462936
0.00539787
0.00609487
0.00672268
0.00728354
0.00778094
0.00821931
0.0086034
0.00893785
0.00922689
0.0094742
0.00968285
0.00985511
0.0099925
0.0100953
0.010162
0.0101888
0.0912369
0.0667392
0.0507068
0.040372
0.0334353
0.0284766
0.0246807
0.0215693
0.0188392
0.0162716
0.0136728
0.0108495
0.00760105
0.00379892
0.000356452
0.000148213
0.00136159
0.00230602
0.00291568
0.0033435
0.00364249
0.0038124
0.00381274
0.00364897
0.0032806
0.00268215
0.00187155
0.00092716
0.000134643
0.000181043
0.00163398
0.00292813
0.00401102
0.00497011
0.0058439
0.00664125
0.00736311
0.00801097
0.00858807
0.00909885
0.00954821
0.00994095
0.0102814
0.0105735
0.0108201
0.0110236
0.0111854
0.0113053
0.011382
0.0114121
0.0936805
0.0721972
0.056788
0.0460463
0.0384175
0.0327599
0.0283313
0.0246552
0.0214094
0.0183518
0.0152717
0.011968
0.00825176
0.0040418
0.000371448
0.000153961
0.00141731
0.00242861
0.0030877
0.00355576
0.0038901
0.00408803
0.00411949
0.00395733
0.00356841
0.00292306
0.00202232
0.000945469
0.000136799
0.000183689
0.00161085
0.0029662
0.00414284
0.00520529
0.00618144
0.0070765
0.00788989
0.00862189
0.00927572
0.00985605
0.0103681
0.0108168
0.0112068
0.0115419
0.0118253
0.012059
0.0122444
0.0123811
0.0124679
0.0125017
0.0954578
0.0764531
0.0618629
0.0510296
0.042944
0.0367317
0.0317531
0.027559
0.0238251
0.0202972
0.0167544
0.0129932
0.00883974
0.00425735
0.000385133
0.000158984
0.00145572
0.00252043
0.00322428
0.00373854
0.00411925
0.00436003
0.00442995
0.00428737
0.00389767
0.00321627
0.00223104
0.00100398
0.000142281
0.000183618
0.00154182
0.00293061
0.00418812
0.00534877
0.00642537
0.00741521
0.00831688
0.00912959
0.00985656
0.010503
0.0110745
0.0115764
0.0120135
0.0123898
0.0127082
0.0129709
0.013179
0.0133322
0.0134291
0.0134667
0.0967866
0.0797906
0.0660573
0.0553302
0.0469747
0.040343
0.0349038
0.0302507
0.0260696
0.0221039
0.0181281
0.0139398
0.00938083
0.00445585
0.000397948
0.000163361
0.00148098
0.00258423
0.00333064
0.00389939
0.00433766
0.00463262
0.00475015
0.00464255
0.0042679
0.00356842
0.00250638
0.00111543
0.000157002
0.00018302
0.00143205
0.00283306
0.00416206
0.00541733
0.0065914
0.00767333
0.00865787
0.00954672
0.0103422
0.0110505
0.0116776
0.0122294
0.0127108
0.0131258
0.0134774
0.0137677
0.0139975
0.0141666
0.0142733
0.0143149
0.0977996
0.0824231
0.0695037
0.0589936
0.0505064
0.043572
0.0377604
0.0327134
0.0281359
0.0237753
0.0194059
0.0148275
0.00989495
0.00464942
0.000410443
0.000167476
0.00149981
0.00262095
0.00341351
0.00404758
0.00455292
0.00490973
0.00508169
0.00502074
0.00467566
0.00397655
0.00285873
0.00131946
0.000183344
0.000179709
0.00128029
0.00269004
0.00408529
0.00543222
0.00669878
0.00786631
0.0089276
0.00988563
0.0107435
0.0115082
0.0121864
0.0127842
0.0133065
0.0137576
0.0141402
0.0144564
0.0147067
0.014891
0.0150074
0.0150529
0.0985825
0.0845086
0.0723226
0.0620813
0.0535583
0.0464173
0.040315
0.0349415
0.0300248
0.0253211
0.0206071
0.0156831
0.0104099
0.00485617
0.000423203
0.000170954
0.00151044
0.00263581
0.00348687
0.00419757
0.00477516
0.00519605
0.00542511
0.00541663
0.0051141
0.00443487
0.00328779
0.00162945
0.000213656
0.000174703
0.00111519
0.00252801
0.00398786
0.00542169
0.00677065
0.00801249
0.00914067
0.0101581
0.0110704
0.0118849
0.0126087
0.0132479
0.0138076
0.0142916
0.0147029
0.015043
0.0153126
0.0155111
0.0156367
0.0156862
0.0991922
0.0861633
0.0746167
0.0646577
0.0561618
0.0488901
0.0425705
0.0369374
0.0317432
0.0267561
0.0217565
0.0165425
0.0109675
0.00510307
0.00043708
0.00017551
0.00148613
0.00264564
0.00357855
0.00437227
0.005019
0.00549845
0.00578095
0.00582486
0.00557487
0.00493393
0.0037806
0.00201398
0.000243349
0.000166085
0.000977339
0.00239294
0.00391997
0.00542068
0.00683403
0.00813113
0.0093104
0.010375
0.0113319
0.0121884
0.0129515
0.013627
0.0142198
0.0147335
0.0151707
0.0155328
0.0158201
0.0160319
0.0161662
0.0162194
0.0996678
0.0874729
0.0764695
0.0667829
0.0583524
0.0510087
0.0445361
0.0387078
0.0333005
0.0280965
0.0228819
0.0174509
0.01164
0.00546922
0.000453219
0.000179932
0.00143559
0.00270206
0.00373652
0.00460467
0.0053046
0.00582718
0.00615139
0.00624142
0.00604931
0.00546622
0.00433472
0.00243904
0.00027856
0.000169627
0.000893309
0.00235605
0.00394457
0.00548198
0.00691628
0.00824119
0.00945044
0.0105462
0.011536
0.0124253
0.0132205
0.0139267
0.0145481
0.0150879
0.0155482
0.0159301
0.0162333
0.0164573
0.0165996
0.0166565
0.100037
0.0885002
0.0779472
0.0685088
0.0601641
0.052793
0.046223
0.0402606
0.0347055
0.0293561
0.0240092
0.0184618
0.0125273
0.00612218
0.000473322
0.000254065
0.00153928
0.0029252
0.00403333
0.00493722
0.00565659
0.00619565
0.00654181
0.00666845
0.00652582
0.00602565
0.00497865
0.00299989
0.000335297
0.000263461
0.00106817
0.00259419
0.00415857
0.00564987
0.00705087
0.00835531
0.00957214
0.0106799
0.0116892
0.0126012
0.0134207
0.0141515
0.0147968
0.0153589
0.0158393
0.0162386
0.016556
0.0167908
0.0169405
0.0170007
0.100318
0.0892906
0.0791003
0.0698777
0.0616266
0.054261
0.0476414
0.0416013
0.0359624
0.030541
0.025152
0.0196158
0.0137871
0.00765236
0.00178958
0.00151069
0.0023815
0.00352009
0.00455565
0.00541428
0.00609919
0.00661763
0.00695846
0.00710198
0.00700384
0.00659765
0.00574075
0.00422377
0.00203941
0.00183304
0.00240332
0.00340689
0.00464297
0.00595065
0.00724685
0.00849144
0.00967933
0.0107812
0.0117939
0.0127181
0.013554
0.0143033
0.0149674
0.0155476
0.0160448
0.0164592
0.0167902
0.0170352
0.0171917
0.017255
0.100525
0.0898764
0.0799659
0.0709217
0.0627628
0.0554265
0.0487975
0.0427311
0.0370683
0.0316449
0.026299
0.020886
0.0153195
0.00968621
0.00441362
0.00345668
0.00385076
0.00457395
0.00535606
0.00606192
0.00664792
0.00710036
0.00740559
0.00754334
0.00747742
0.00714897
0.00649338
0.00537623
0.00391002
0.00348497
0.0037264
0.00437403
0.00527108
0.00634784
0.00749311
0.00864446
0.00977563
0.0108511
0.0118544
0.01278
0.0136243
0.0143857
0.0150638
0.0156585
0.0161696
0.0165966
0.0169386
0.0171921
0.0173544
0.0174205
0.100666
0.0902791
0.0805691
0.0716627
0.0635881
0.0562977
0.0496929
0.0436453
0.0380126
0.0326489
0.0274168
0.0222063
0.016979
0.0118685
0.00733917
0.00581291
0.00560894
0.00590884
0.00637393
0.00686036
0.00729517
0.00764368
0.0078833
0.00799131
0.00793686
0.00767662
0.00716924
0.00636142
0.00538193
0.00489834
0.00491825
0.00529644
0.00594062
0.00678774
0.00776528
0.00880311
0.00985804
0.0108913
0.0118725
0.0127898
0.0136346
0.0144022
0.0150894
0.0156945
0.0162163
0.0166532
0.0170034
0.017264
0.0174313
0.0175
0.100746
0.0905115
0.0809249
0.0721132
0.06411
0.0568762
0.050323
0.0443333
0.0387772
0.0335248
0.0284596
0.0234999
0.0186385
0.0140228
0.0100907
0.00820688
0.0074945
0.00737281
0.00751968
0.00776199
0.00801642
0.00823438
0.00838472
0.00844159
0.00837713
0.00815908
0.00775784
0.00716596
0.00648057
0.00602603
0.00592441
0.00611803
0.00657164
0.00721715
0.00803595
0.00895326
0.00991737
0.0108999
0.0118477
0.0127479
0.0135864
0.0143542
0.0150458
0.0156575
0.0161866
0.0166308
0.0169876
0.0172537
0.017425
0.0174958
0.100768
0.0905786
0.0810383
0.0722762
0.0643281
0.0571571
0.0506782
0.0447795
0.0393392
0.0342388
0.0293777
0.0246934
0.0201943
0.0160184
0.0125226
0.0104712
0.00932735
0.00886606
0.00871055
0.00871204
0.00877698
0.0088508
0.00889662
0.00888594
0.00879252
0.00859063
0.00826041
0.00780436
0.00729192
0.00690138
0.00673768
0.00681035
0.00711437
0.00761059
0.00827997
0.00907883
0.00995098
0.0108702
0.0117779
0.012654
0.0134798
0.0142427
0.0149343
0.0155488
0.0160822
0.0165312
0.0168926
0.0171627
0.0173371
0.0174097
0.10073
0.0904784
0.0809059
0.0721466
0.0642348
0.0571301
0.0507438
0.0449645
0.0396722
0.0347552
0.0301228
0.025723
0.0215674
0.0177706
0.0145954
0.012461
0.0110566
0.0103027
0.00988295
0.00965827
0.0095391
0.00946658
0.00940111
0.00931262
0.00917585
0.00896883
0.00867668
0.00830381
0.00789646
0.00755804
0.00736961
0.00736492
0.00755764
0.00794216
0.0084759
0.00916651
0.00994869
0.0107986
0.0116608
0.0125072
0.0133151
0.0140684
0.0147558
0.0153697
0.0159044
0.0163557
0.0167197
0.0169923
0.0171688
0.0172427
0.10063
0.0902015
0.0805147
0.0717093
0.0638143
0.0567784
0.0505031
0.0448673
0.0397495
0.0350401
0.0306519
0.0265368
0.0227011
0.01923
0.0163035
0.0141515
0.0125947
0.0116164
0.0109769
0.0105546
0.0102662
0.0100539
0.00987782
0.00970737
0.00951812
0.00929039
0.0090117
0.00868457
0.00833906
0.00803762
0.00784023
0.00778567
0.00789742
0.00818569
0.0086183
0.00920573
0.00990204
0.0106804
0.0114939
0.0123061
0.0130917
0.0138313
0.014511
0.0151209
0.0156542
0.0161053
0.0164699
0.0167436
0.0169212
0.016996
0.100461
0.0897313
0.079843
0.0709419
0.0630448
0.0560808
0.0499319
0.0444634
0.0395452
0.0350627
0.0309304
0.0270961
0.0235573
0.0203705
0.0176525
0.0155297
0.0138939
0.0127582
0.011947
0.0113602
0.0109241
0.0105858
0.0103058
0.0100546
0.00980891
0.00955052
0.00926801
0.00896142
0.00864944
0.00837105
0.00816968
0.00808142
0.00813299
0.00834212
0.00869398
0.00918813
0.00980453
0.0105107
0.0112751
0.0120495
0.0128091
0.0135315
0.0142001
0.0148032
0.0153322
0.0157809
0.0161442
0.0164173
0.0165949
0.0166702
0.100213
0.0890426
0.0788594
0.0698132
0.0618986
0.0550133
0.0490098
0.0437318
0.0390347
0.0347971
0.030927
0.0273699
0.0241107
0.0211813
0.0186504
0.0165902
0.0149289
0.0136943
0.0127583
0.0120425
0.0114846
0.0110375
0.0106647
0.0103385
0.010037
0.00974308
0.00944598
0.00914366
0.00884665
0.0085797
0.00837442
0.00826186
0.00826737
0.00841084
0.00870005
0.00910751
0.00965162
0.0102894
0.0110011
0.0117358
0.0124666
0.0131687
0.0138234
0.0144168
0.0149391
0.015383
0.015743
0.0160139
0.0161904
0.0162657
0.0998722
0.0881
0.0775215
0.0682835
0.0603427
0.0535494
0.0477149
0.0426528
0.0381995
0.0342225
0.0306225
0.02734
0.0243479
0.0216574
0.0193067
0.0173324
0.0156874
0.0144027
0.013385
0.0125753
0.0119229
0.0113872
0.010936
0.010544
0.0101908
0.00986089
0.00954378
0.00923602
0.00894266
0.00867953
0.00846906
0.00833589
0.00830513
0.00839658
0.00862434
0.00896664
0.00943994
0.0100139
0.0106697
0.0113637
0.0120635
0.0127427
0.0133807
0.0139619
0.014475
0.0149119
0.0152665
0.0155336
0.0157079
0.0157826
0.0994181
0.0868555
0.0757745
0.0663047
0.0583404
0.0516629
0.0460279
0.041211
0.0370256
0.0333261
0.0300071
0.0269958
0.0242631
0.0218018
0.0196285
0.0177594
0.0161661
0.0148706
0.0138092
0.0129387
0.012219
0.0116164
0.0111031
0.0106568
0.0102592
0.00989629
0.00955792
0.00923927
0.00894304
0.00867871
0.00846207
0.00831258
0.00825181
0.00829965
0.00847198
0.00876103
0.00916732
0.00968129
0.0102798
0.0109326
0.0115992
0.0122532
0.012872
0.0134384
0.0139399
0.0143675
0.0147147
0.0149763
0.015147
0.0152205
0.0988229
0.0852441
0.073549
0.0638208
0.055853
0.0493295
0.0439339
0.0393967
0.0355053
0.0321008
0.0290696
0.0263367
0.0238567
0.0216205
0.0196271
0.0178757
0.0163661
0.0150907
0.0140188
0.0131181
0.0123575
0.0117096
0.0111516
0.0106643
0.0102317
0.00984126
0.0094838
0.00915408
0.00885226
0.00858408
0.00836058
0.00819698
0.00811139
0.00812236
0.00824604
0.00848989
0.00883153
0.00928998
0.00983227
0.0104415
0.0110731
0.0116997
0.0122969
0.0128461
0.0133335
0.0137495
0.0140871
0.0143413
0.0145071
0.0145785
0.0980471
0.0831788
0.0707593
0.0607698
0.052844
0.0465309
0.0414257
0.0372079
0.033639
0.0305475
0.0278141
0.0253598
0.0231378
0.0211234
0.0193125
0.0176963
0.0162834
0.0150598
0.0140078
0.0131039
0.0123268
0.0116545
0.0110694
0.0105553
0.0100986
0.00968848
0.00931655
0.00897764
0.00867053
0.00839836
0.00816878
0.00799344
0.00788733
0.00786718
0.00794908
0.0081452
0.00843736
0.00883889
0.00932847
0.00988883
0.0104848
0.0110817
0.0116549
0.0121844
0.0126552
0.0130569
0.0133827
0.0136273
0.0137866
0.0138552
0.0970332
0.0805426
0.0673022
0.0570872
0.0492831
0.0432593
0.0385067
0.0346527
0.0314356
0.0286749
0.0262487
0.0240766
0.0221094
0.0203201
0.0186964
0.0172324
0.0159279
0.0147778
0.0137702
0.0128886
0.0121173
0.0114418
0.010847
0.0103204
0.00985129
0.00943051
0.00905064
0.00870674
0.0083969
0.00812256
0.00788889
0.00770469
0.00758218
0.00753603
0.00758161
0.00773212
0.00798324
0.0083275
0.00876706
0.00927469
0.00983449
0.0103987
0.0109452
0.0114522
0.0119035
0.0122884
0.0125997
0.0128326
0.0129834
0.0130482
0.0956958
0.0771772
0.0630576
0.0527136
0.0451552
0.0395226
0.0351945
0.0317509
0.0289139
0.0264998
0.0243884
0.022501
0.0207887
0.0192239
0.0177924
0.016488
0.0153092
0.0142509
0.0133063
0.0124673
0.0117229
0.0110623
0.0104748
0.00995076
0.00948175
0.00906044
0.00868052
0.00833751
0.00802926
0.00775615
0.00752157
0.00733207
0.00719744
0.00713025
0.00714465
0.00725388
0.00746527
0.00775722
0.00814608
0.00860444
0.00911987
0.00964976
0.0101667
0.010648
0.0110768
0.0114417
0.0117356
0.0119541
0.0120946
0.0121542
0.0939021
0.0728699
0.057895
0.0476074
0.0404698
0.0353517
0.0315247
0.0285358
0.0261028
0.0240466
0.022254
0.0206514
0.0191921
0.0178521
0.0166152
0.0154755
0.0144309
0.0134791
0.0126166
0.0118388
0.0111393
0.010511
0.00994676
0.00943954
0.00898303
0.00857181
0.00820065
0.00786561
0.0075646
0.0072974
0.00706616
0.00687565
0.00673357
0.00665043
0.00663891
0.00671215
0.00688099
0.00713104
0.00746618
0.00787558
0.00834138
0.00883408
0.00931768
0.00976955
0.0101721
0.0105135
0.0107868
0.0109881
0.0111158
0.0111688
0.0914349
0.0673388
0.0516925
0.0417666
0.0352756
0.0308064
0.0275529
0.0250546
0.0230412
0.0213468
0.0198718
0.018549
0.0173405
0.0162215
0.015179
0.0142073
0.0133047
0.0124704
0.0117036
0.0110024
0.0103637
0.00978344
0.00925726
0.00878052
0.00834879
0.00795845
0.00760544
0.00728626
0.00699913
0.00674353
0.00652076
0.00633423
0.00618984
0.00609615
0.00606417
0.00610626
0.00623381
0.00644876
0.00672585
0.00708691
0.00749818
0.00795077
0.00839591
0.00881369
0.00918549
0.00949924
0.0097482
0.00992933
0.0100416
0.0100861
0.0879168
0.060229
0.0443778
0.0352594
0.0296741
0.0259809
0.0233563
0.0213683
0.0197776
0.0184382
0.0172722
0.0162214
0.015254
0.0143501
0.013499
0.0126958
0.0119397
0.011231
0.0105706
0.00995859
0.00939422
0.00887593
0.00840145
0.00796811
0.00757311
0.00721436
0.00688912
0.00659425
0.00632829
0.00609072
0.00588226
0.0057053
0.00556423
0.00546578
0.00541911
0.00543532
0.00552589
0.00569928
0.00592963
0.00623661
0.0065937
0.00699579
0.00739775
0.00777585
0.00811147
0.00839271
0.00861306
0.00877055
0.00886526
0.0088996
0.0826461
0.0511524
0.0360081
0.0282622
0.0238308
0.0210041
0.0190314
0.017549
0.0163649
0.0153663
0.0144904
0.0136953
0.0129559
0.0122572
0.011591
0.0109539
0.0103456
0.00976742
0.00922117
0.00870832
0.00822973
0.00778549
0.00737499
0.00699708
0.00665019
0.00633346
0.00604563
0.00578369
0.00554661
0.00533396
0.00514617
0.00498484
0.00485311
0.00475605
0.0047009
0.00469706
0.00475525
0.00488608
0.00507507
0.0053234
0.00562306
0.00596642
0.00631817
0.00664939
0.00694233
0.00718573
0.00737374
0.00750501
0.00757962
0.00760153
0.0742451
0.0398658
0.0268942
0.0210902
0.0179741
0.0160333
0.0146872
0.0136783
0.0128662
0.0121758
0.0115635
0.0110011
0.0104713
0.00996346
0.00947208
0.00899505
0.00853274
0.00808686
0.00765967
0.00725335
0.00686966
0.0065097
0.00617399
0.0058624
0.00557425
0.00530951
0.00506837
0.00484792
0.00464749
0.00446688
0.00430636
0.004167
0.00405091
0.00396167
0.00390461
0.00388712
0.00391826
0.00400789
0.00415935
0.00434347
0.00458282
0.00485938
0.00515362
0.00542847
0.00567038
0.00586926
0.00602001
0.0061221
0.00617551
0.00618358
0.0600507
0.0267697
0.0177295
0.0141917
0.0123753
0.0112356
0.010445
0.0098401
0.00934543
0.0089184
0.00853339
0.00817389
0.00782936
0.0074934
0.00716266
0.0068361
0.00651439
0.00619925
0.00589292
0.00559764
0.00531543
0.00504781
0.00479584
0.00456
0.00434009
0.00413645
0.00395057
0.00377963
0.00362333
0.00348171
0.00335504
0.003244
0.0031499
0.00307501
0.00302285
0.0029986
0.003009
0.0030624
0.00316811
0.00329696
0.00346808
0.00367008
0.0038957
0.00410341
0.00428506
0.00443294
0.00454253
0.00461464
0.00464824
0.00464295
0.0365635
0.013788
0.0095733
0.00807459
0.00730176
0.00679389
0.00642167
0.00612687
0.00587864
0.00565902
0.00545646
0.0052632
0.00507402
0.00488572
0.00469663
0.00450634
0.0043155
0.00412539
0.00393774
0.0037543
0.00357675
0.00340642
0.00324447
0.00309145
0.00294735
0.00281228
0.0026886
0.00257395
0.00246827
0.0023719
0.00228511
0.00220833
0.00214221
0.00208797
0.00204747
0.00202373
0.00202066
0.00204382
0.00210253
0.00217828
0.00227746
0.00240203
0.00254304
0.00267384
0.00278705
0.00287925
0.002946
0.00298994
0.00300884
0.00299506
0.0100622
0.00435934
0.00349257
0.0032026
0.003036
0.00290181
0.00278935
0.00269436
0.00261066
0.0025342
0.00246182
0.00239114
0.00232039
0.00224852
0.00217492
0.0020994
0.00202227
0.00194408
0.00186562
0.00178773
0.00171126
0.00163687
0.00156531
0.00149685
0.00143154
0.00136823
0.00130968
0.00125483
0.00120359
0.00115649
0.00111376
0.00107558
0.00104214
0.00101387
0.000991298
0.000975583
0.000967919
0.000970477
0.00098735
0.00101494
0.00104596
0.00109471
0.00114687
0.00119817
0.00124231
0.00128054
0.00130797
0.00132821
0.0013394
0.00132847
0.000512579
0.000371085
0.000318802
0.000294044
0.000279515
0.000269073
0.000260846
0.000254076
0.000248247
0.000243096
0.000238399
0.000233979
0.000229688
0.000225418
0.000221088
0.00021664
0.000212047
0.000207301
0.000202416
0.000197417
0.000192339
0.000187221
0.000182095
0.000177024
0.000171963
0.000167035
0.000162259
0.000157647
0.000153186
0.00014889
0.000144778
0.00014087
0.00013719
0.000133763
0.000130629
0.000127827
0.000125442
0.000123534
0.000122261
0.000121914
0.000122024
0.000123029
0.000124892
0.000127315
0.000130121
0.000132894
0.000135665
0.000137842
0.000139944
0.000140935
)
;

boundaryField
{
    floor
    {
        type            compressible::alphatWallFunction;
        Prt             0.85;
        value           nonuniform List<scalar> 
50
(
7.11524e-05
4.89283e-05
4.01184e-05
3.55178e-05
3.24255e-05
2.98376e-05
2.74605e-05
2.51554e-05
2.28442e-05
2.04718e-05
1.80369e-05
1.54292e-05
1.20336e-05
6.5067e-06
0
0
0
0
0
0
8.96912e-07
1.67446e-06
2.11654e-06
2.20138e-06
2.07938e-06
1.462e-06
0
0
0
0
0
2.01659e-06
4.48315e-06
6.33794e-06
7.93399e-06
9.13223e-06
1.00957e-05
1.08589e-05
1.14708e-05
1.19614e-05
1.23582e-05
1.26806e-05
1.29398e-05
1.31502e-05
1.33417e-05
1.35538e-05
1.38115e-05
1.41128e-05
1.44404e-05
1.49611e-05
)
;
    }
    ceiling
    {
        type            compressible::alphatWallFunction;
        Prt             0.85;
        value           nonuniform List<scalar> 
50
(
7.11478e-05
4.90674e-05
4.06466e-05
3.65966e-05
3.41989e-05
3.24652e-05
3.10929e-05
2.99594e-05
2.89802e-05
2.81122e-05
2.73184e-05
2.65696e-05
2.5841e-05
2.51138e-05
2.43745e-05
2.3613e-05
2.28243e-05
2.20068e-05
2.11626e-05
2.02959e-05
1.94123e-05
1.85183e-05
1.76194e-05
1.67266e-05
1.58321e-05
1.49575e-05
1.41061e-05
1.32808e-05
1.24793e-05
1.17041e-05
1.09593e-05
1.02488e-05
9.57732e-06
8.95001e-06
8.37485e-06
7.8595e-06
7.42107e-06
7.07014e-06
6.84048e-06
6.78112e-06
6.80611e-06
7.0021e-06
7.35371e-06
7.80645e-06
8.32668e-06
8.8377e-06
9.34561e-06
9.74249e-06
1.01247e-05
1.03007e-05
)
;
    }
    inlet
    {
        type            calculated;
        value           nonuniform List<scalar> 
40
(
0.105877
0.105877
0.105877
0.105877
0.105876
0.105876
0.105876
0.105876
0.105876
0.105876
0.105876
0.105875
0.105875
0.105875
0.105875
0.105875
0.105875
0.105874
0.105874
0.105874
0.105874
0.105874
0.105874
0.105874
0.105873
0.105873
0.105873
0.105873
0.105873
0.105873
0.105873
0.105872
0.105872
0.105872
0.105872
0.105872
0.105872
0.105871
0.105871
0.105871
)
;
    }
    outlet
    {
        type            calculated;
        value           nonuniform List<scalar> 
40
(
0.000166811
0.00176922
0.00374731
0.00560668
0.00729729
0.00882109
0.0101888
0.0114122
0.0125017
0.0134667
0.0143149
0.0150529
0.0156862
0.0162194
0.0166565
0.0170008
0.0172551
0.0174205
0.0175
0.0174959
0.0174097
0.0172428
0.016996
0.0166702
0.0162657
0.0157826
0.0152205
0.0145786
0.0138552
0.0130482
0.0121542
0.0111688
0.0100862
0.0088996
0.00760153
0.00618358
0.00464295
0.00299506
0.00132847
0.000140935
)
;
    }
    fixedWalls
    {
        type            empty;
    }
    baffleFacesThermoBaffle1D_master
    {
        type            compressible::alphatWallFunction;
        Prt             0.85;
        value           nonuniform List<scalar> 
16
(
0
0
1.5985e-06
4.49639e-06
6.66626e-06
8.37719e-06
9.80033e-06
1.10126e-05
1.20553e-05
1.29614e-05
1.37483e-05
1.44841e-05
1.51063e-05
1.59161e-05
1.67119e-05
2.92707e-05
)
;
    }
    baffleFacesThermoBaffle1D_slave
    {
        type            compressible::alphatWallFunction;
        Prt             0.85;
        value           nonuniform List<scalar> 
16
(
5.12161e-06
1.75296e-05
2.51776e-05
3.08e-05
3.53769e-05
3.90517e-05
4.21179e-05
4.47857e-05
4.71658e-05
4.9328e-05
5.13431e-05
5.3302e-05
5.52906e-05
5.74527e-05
5.99452e-05
6.31833e-05
)
;
    }
    baffleFacesThermoBaffle3D_master
    {
        type            compressible::alphatWallFunction;
        Prt             0.85;
        value           nonuniform List<scalar> 
16
(
0
1.53866e-07
4.49181e-06
7.6112e-06
9.811e-06
1.14229e-05
1.25956e-05
1.33951e-05
1.38565e-05
1.38544e-05
1.38026e-05
1.33053e-05
1.2523e-05
1.11453e-05
1.18689e-05
2.74508e-05
)
;
    }
    baffleFacesThermoBaffle3D_slave
    {
        type            compressible::alphatWallFunction;
        Prt             0.85;
        value           nonuniform List<scalar> 
16
(
0
0
1.54181e-06
3.2018e-06
4.20452e-06
4.74449e-06
5.19007e-06
5.55421e-06
5.95615e-06
6.97179e-06
9.58009e-06
1.40409e-05
1.90465e-05
2.39394e-05
2.97165e-05
3.88501e-05
)
;
    }
}


// ************************************************************************* //
