/*--------------------------------*- C++ -*----------------------------------*\
| =========                 |                                                 |
| \\      /  F ield         | OpenFOAM: The Open Source CFD Toolbox           |
|  \\    /   O peration     | Version:  v1906                                 |
|   \\  /    A nd           | Web:      www.OpenFOAM.com                      |
|    \\/     M anipulation  |                                                 |
\*---------------------------------------------------------------------------*/
FoamFile
{
    version     2.0;
    format      ascii;
    class       volScalarField;
    location    "1500";
    object      epsilon;
}
// * * * * * * * * * * * * * * * * * * * * * * * * * * * * * * * * * * * * * //

dimensions      [0 2 -3 0 0 0 0];


internalField   nonuniform List<scalar> 
2000
(
1.91876
0.722815
0.447641
0.33855
0.276849
0.231757
0.195201
0.163887
0.136291
0.111629
0.0898796
0.0702149
0.0495096
0.0256618
0.00515475
0.00065471
0.00276017
0.00480549
0.00706874
0.0091407
0.0113378
0.0129174
0.0138964
0.0141153
0.0138767
0.0125807
0.00971352
0.00622472
0.002129
0.00213208
0.00769835
0.0133303
0.0193764
0.0250672
0.0308286
0.0357318
0.0400517
0.0437234
0.0468296
0.049427
0.0515973
0.0534067
0.0548915
0.0561134
0.0572456
0.0585269
0.0601116
0.0620089
0.0641239
0.0676023
0.103697
0.172369
0.154412
0.130859
0.11289
0.098534
0.0862342
0.0751714
0.0648818
0.0550873
0.045677
0.0364647
0.027153
0.0185403
0.0156742
0.00105958
0.00210765
0.0030349
0.00382233
0.00448543
0.00510353
0.0056038
0.00596147
0.00608419
0.00596104
0.00543616
0.00456849
0.00355748
0.00238419
0.00274307
0.0056741
0.00793878
0.00999528
0.01195
0.0138773
0.0156345
0.0172269
0.0186125
0.0198214
0.0208614
0.021756
0.022521
0.023176
0.0237358
0.0242293
0.0246917
0.0251601
0.0255924
0.0259847
0.0263664
0.0285003
0.0658547
0.0774953
0.0760555
0.071052
0.0653648
0.0595588
0.0537873
0.048038
0.0422743
0.0365031
0.0307858
0.0254122
0.0217182
0.029409
0.0021766
0.00217564
0.00274679
0.00326293
0.00372664
0.00415635
0.00452716
0.00481298
0.00493441
0.00486324
0.00448122
0.00386808
0.00320056
0.00346374
0.00514905
0.0053152
0.00660921
0.00793391
0.00926804
0.0105809
0.0118061
0.0129197
0.0138994
0.0147557
0.0154962
0.0161365
0.0166877
0.0171615
0.0175648
0.0179107
0.0182119
0.0184794
0.0186957
0.0188599
0.0189551
0.0173464
0.0358059
0.0473853
0.0513727
0.0513386
0.0495621
0.0468616
0.043701
0.0402471
0.0365876
0.032825
0.0291652
0.0261481
0.0257339
0.0437328
0.00334343
0.0024229
0.00275939
0.00317695
0.00358272
0.00397126
0.00431315
0.00457877
0.00469721
0.00464565
0.00434478
0.00385213
0.00344193
0.0043897
0.00755374
0.00546123
0.0061562
0.0071432
0.00821104
0.00928092
0.0102972
0.0112261
0.0120497
0.0127708
0.0133977
0.0139399
0.0144063
0.0148048
0.0151423
0.0154264
0.0156634
0.0158578
0.0160021
0.0160963
0.0161267
0.0140334
0.0245863
0.0331842
0.0379641
0.0398227
0.0399256
0.0390066
0.0374242
0.0354302
0.0331738
0.0308241
0.028687
0.0275017
0.0298325
0.0586039
0.00446652
0.00272947
0.0028894
0.00325374
0.00364977
0.00403308
0.00436855
0.004627
0.00474902
0.00472015
0.00448937
0.00412238
0.00392736
0.00502525
0.00965325
0.00581577
0.00603576
0.0067931
0.00769607
0.0086265
0.00952344
0.0103497
0.0110888
0.0117399
0.0123079
0.012799
0.0132211
0.0135812
0.0138849
0.0141374
0.0143428
0.0145038
0.0146173
0.0146839
0.0146951
0.0126142
0.0193947
0.0256445
0.0299907
0.0324371
0.0334792
0.0335676
0.0330257
0.0320454
0.0308189
0.0295599
0.028651
0.0289803
0.0338043
0.0728951
0.00552378
0.00306219
0.00308756
0.00342696
0.0038308
0.00423046
0.00458128
0.00485431
0.00500065
0.00500469
0.00483766
0.00457077
0.00451781
0.00539975
0.0114359
0.00621132
0.00608145
0.00665972
0.00743925
0.00826995
0.00908245
0.00983888
0.0105217
0.011127
0.0116569
0.012117
0.0125136
0.0128522
0.0131374
0.0133731
0.0135624
0.0137073
0.013807
0.0138622
0.0138673
0.0118664
0.0166018
0.0212606
0.024955
0.0274584
0.0289307
0.0296202
0.0297514
0.0295113
0.0290738
0.0286927
0.0288064
0.0304617
0.0376284
0.0865775
0.00653002
0.00339516
0.00333236
0.00366716
0.00409558
0.00452742
0.00491026
0.00521432
0.00540737
0.00545597
0.00535049
0.00515924
0.00516792
0.00573334
0.0128782
0.00661589
0.00622547
0.0066532
0.00733058
0.00808033
0.00882476
0.00952506
0.0101625
0.0107321
0.0112346
0.0116739
0.0120546
0.0123807
0.0126559
0.0128831
0.0130648
0.0132027
0.0132968
0.0133477
0.013351
0.0114183
0.0149335
0.0185238
0.0216226
0.0239854
0.0256239
0.0266616
0.0272502
0.0275463
0.0277294
0.0280699
0.0290653
0.0319241
0.0412696
0.0998833
0.00748433
0.00374014
0.00362013
0.0039725
0.0044423
0.00491874
0.00534484
0.00569408
0.00594412
0.00605861
0.00602839
0.00587302
0.00583715
0.00602904
0.0139408
0.0070418
0.006425
0.00672686
0.0073176
0.00799617
0.00867931
0.00932832
0.00992545
0.0104646
0.0109451
0.0113689
0.0117388
0.0120576
0.0123277
0.0125515
0.0127306
0.0128664
0.0129591
0.0130091
0.0130124
0.0111262
0.0138603
0.0167178
0.0193321
0.0214973
0.0231696
0.0244034
0.0253015
0.0259973
0.0266718
0.0276145
0.0293799
0.0333346
0.0447582
0.112926
0.00838041
0.00411113
0.00396189
0.00435986
0.00488832
0.00541657
0.00588843
0.00628545
0.00659601
0.00680133
0.00686764
0.00677622
0.00661274
0.00637174
0.0145915
0.00746859
0.00665866
0.00685912
0.00737291
0.00798449
0.00860846
0.00920778
0.00976629
0.0102771
0.010738
0.0111489
0.0115109
0.0118253
0.0120935
0.0123168
0.0124963
0.0126329
0.0127266
0.0127772
0.0127813
0.0109247
0.0131318
0.0154737
0.0177082
0.0196758
0.021319
0.0226579
0.0237658
0.0247615
0.0258281
0.0272768
0.0297209
0.0346883
0.0481192
0.125779
0.00921778
0.00452519
0.0043884
0.00486663
0.00546847
0.00604568
0.00655242
0.00698573
0.00735269
0.00765364
0.00786569
0.00793118
0.00781204
0.00727272
0.0145901
0.00783095
0.0069141
0.00703944
0.00748431
0.00802783
0.00859128
0.0091398
0.00965924
0.010142
0.0105841
0.0109834
0.0113389
0.0116506
0.0119185
0.0121431
0.0123248
0.0124638
0.0125597
0.0126119
0.0126172
0.0107802
0.0126174
0.0145876
0.0165277
0.0183184
0.0199057
0.0212955
0.0225455
0.0237664
0.0251461
0.0270201
0.030065
0.0359806
0.0513855
0.138666
0.00999077
0.00501324
0.00495846
0.0055587
0.00623643
0.00684085
0.00735152
0.00779108
0.00819158
0.00858077
0.00897263
0.00935373
0.00969804
0.00982084
0.0145075
0.00817641
0.00719592
0.00727332
0.00764988
0.0081184
0.00861424
0.00910945
0.00958786
0.010042
0.0104652
0.0108531
0.0112028
0.0115125
0.0117811
0.012008
0.0121928
0.0123351
0.012434
0.0124884
0.012495
0.0106738
0.0122435
0.0139403
0.0156523
0.0172922
0.0188152
0.0202239
0.0215687
0.0229573
0.0245846
0.0268122
0.0303859
0.0371968
0.0545931
0.152054
0.0107526
0.00562913
0.00578745
0.00654447
0.00726679
0.00784293
0.00830019
0.00869425
0.00908399
0.00952753
0.0100996
0.0109095
0.0123097
0.0151816
0.0137859
0.00841715
0.00752772
0.00758198
0.00787455
0.00825193
0.00867005
0.00910567
0.00954077
0.00996506
0.0103689
0.0107454
0.0110893
0.0113974
0.0116671
0.0118968
0.0120852
0.0122313
0.0123335
0.0123902
0.0123983
0.0105939
0.0119661
0.0134584
0.0149934
0.0165075
0.017967
0.0193754
0.020781
0.0222911
0.0241084
0.0266203
0.0306456
0.0382947
0.0577622
0.166588
0.0114255
0.00653114
0.00710578
0.00799169
0.00865175
0.00909045
0.00940537
0.00968389
0.0100024
0.0104422
0.0111357
0.0123575
0.0150166
0.0230468
0.0127194
0.00864195
0.00800432
0.00801115
0.00816747
0.00842498
0.0087512
0.00912009
0.00950961
0.00990289
0.0102868
0.0106513
0.0109894
0.0112957
0.0115665
0.0117992
0.0119914
0.0121414
0.0122472
0.0123065
0.0123161
0.0105332
0.0117573
0.0130951
0.0144922
0.015903
0.0173032
0.0186998
0.0201407
0.0217334
0.0236866
0.026409
0.0307878
0.039177
0.0608548
0.183418
0.0123501
0.00827804
0.00935345
0.010134
0.0104805
0.0106022
0.0106548
0.0107346
0.0109149
0.0112829
0.0120131
0.0135442
0.0174174
0.0333103
0.0110306
0.00912513
0.00884513
0.0086061
0.00853578
0.00863023
0.00884953
0.00914624
0.00948775
0.00984907
0.0102124
0.0105647
0.0108964
0.0112008
0.0114726
0.011708
0.011904
0.0120581
0.0121675
0.0122296
0.0122408
0.0104869
0.0115991
0.0128193
0.0141091
0.0154356
0.0167826
0.01816
0.0196159
0.0212569
0.0232924
0.0261408
0.0307341
0.0396202
0.0632346
0.204378
0.0133091
0.0125603
0.0133253
0.0132069
0.0127827
0.01235
0.0120099
0.0118082
0.0117867
0.0120099
0.0126792
0.0143719
0.0195342
0.0493198
0.0118376
0.0117449
0.0103992
0.00938556
0.00894575
0.00885278
0.00895439
0.00917648
0.0094695
0.00979859
0.010141
0.0104806
0.0108057
0.0111076
0.01138
0.0116181
0.0118178
0.0119758
0.0120889
0.0121538
0.0121667
0.0104516
0.0114794
0.0126104
0.0138168
0.0150751
0.0163749
0.0177285
0.0191828
0.020841
0.0229055
0.0257836
0.0303917
0.039318
0.0635417
0.232616
0.0371578
0.024492
0.019835
0.0171769
0.015431
0.0142296
0.0134
0.0128612
0.0125886
0.0126179
0.0131053
0.0146736
0.0206339
0.0848967
0.0430707
0.0198256
0.0124092
0.0101693
0.00933276
0.00905524
0.0090565
0.00920314
0.00945006
0.00974756
0.010069
0.0103956
0.0107135
0.0110125
0.0112852
0.0115255
0.0117288
0.0118907
0.0120075
0.0120754
0.01209
0.0104252
0.0113901
0.0124541
0.0135966
0.0148005
0.016059
0.0173856
0.0188247
0.0204723
0.0225149
0.0253215
0.0296947
0.0377379
0.0567353
0.133399
0.0735614
0.0399515
0.0270777
0.0212601
0.018055
0.0160553
0.0147289
0.0138463
0.0133092
0.0131098
0.0133323
0.014375
0.0175992
0.0286993
0.0238165
0.0168393
0.0126215
0.0105599
0.00960357
0.00921351
0.00913437
0.00922309
0.00942601
0.009693
0.00999376
0.010307
0.0106172
0.0109129
0.0111853
0.0114276
0.0116341
0.0117999
0.0119204
0.0119913
0.0120078
0.0104061
0.0113255
0.0123408
0.0134357
0.014597
0.0158201
0.0171179
0.0185308
0.0201444
0.0221214
0.0247716
0.0287213
0.035385
0.0484233
0.077586
0.0633502
0.0429852
0.0309683
0.0242066
0.0201869
0.017623
0.0159005
0.0147217
0.0139413
0.01351
0.0134684
0.0139563
0.0155149
0.0186237
0.0175493
0.0146926
0.0122377
0.0106422
0.00974821
0.00931865
0.00918623
0.00923071
0.00939452
0.00963279
0.0099132
0.0102128
0.0105148
0.0108065
0.0110782
0.0113221
0.0115316
0.0117011
0.0118254
0.0118995
0.0119179
0.0103932
0.0112822
0.0122642
0.0133257
0.0144552
0.0156486
0.0169171
0.0182957
0.0198572
0.0217365
0.0241756
0.0276198
0.0329043
0.0415817
0.0545131
0.0510219
0.0406301
0.0317882
0.0256997
0.0216059
0.0188105
0.016852
0.0154602
0.0144837
0.0138512
0.0135569
0.0136422
0.0142582
0.015217
0.0147709
0.013306
0.0117698
0.0105749
0.00979911
0.00937641
0.00921339
0.00922505
0.00935407
0.00956563
0.00982605
0.0101117
0.0104049
0.010692
0.0109624
0.0112075
0.0114198
0.011593
0.0117211
0.0117985
0.0118189
0.010386
0.0112579
0.0122208
0.0132618
0.0143695
0.0155393
0.0167794
0.0181183
0.0196156
0.021377
0.0235806
0.0265178
0.0306265
0.0364113
0.042996
0.0423283
0.036994
0.0310381
0.0260894
0.0223585
0.0196027
0.017565
0.0160527
0.0149384
0.0141486
0.0136527
0.0134476
0.0135295
0.0137024
0.0133399
0.0124196
0.0113694
0.010457
0.00979762
0.00939848
0.00921923
0.00920772
0.00930398
0.00949096
0.00973159
0.0100028
0.0102865
0.0105684
0.0108369
0.0110827
0.0112976
0.0114745
0.0116065
0.0116873
0.0117098
0.0103842
0.0112518
0.0122089
0.0132418
0.0143379
0.0154905
0.0167044
0.0180012
0.0194271
0.0210616
0.023028
0.0255023
0.0286809
0.0326174
0.0363653
0.0363808
0.03371
0.029656
0.0258263
0.0226135
0.0200573
0.0180584
0.0165063
0.0153111
0.0144101
0.0137654
0.0133512
0.0131278
0.0129519
0.0125431
0.0118576
0.0110679
0.0103393
0.00977211
0.00939899
0.00921023
0.00917677
0.00924705
0.00940911
0.00962954
0.00988565
0.0101591
0.0104349
0.010701
0.0109471
0.0111643
0.0113448
0.0114808
0.0115653
0.0115901
0.010388
0.0112641
0.0122289
0.0132663
0.0143611
0.0155038
0.016695
0.0179496
0.0193017
0.0208084
0.0225502
0.024624
0.0270933
0.0298476
0.0321694
0.032386
0.0309092
0.0281591
0.0252313
0.0225491
0.0202598
0.0183714
0.0168393
0.0156106
0.0146396
0.013891
0.0133335
0.0129216
0.0125581
0.0121006
0.01151
0.0108583
0.0102432
0.00974086
0.00938812
0.00919131
0.00913636
0.00918332
0.00932034
0.00951993
0.00976003
0.0100222
0.0102912
0.0105542
0.0108002
0.0110196
0.0112037
0.0113439
0.0114323
0.0114595
0.0103976
0.0112961
0.0122831
0.0133386
0.0144434
0.0155841
0.0167568
0.0179709
0.0192504
0.0206336
0.0221708
0.0239081
0.0258424
0.027823
0.0293565
0.0295939
0.0286956
0.0267766
0.0245271
0.0223071
0.0202941
0.0185501
0.0170757
0.0158487
0.0148406
0.0140238
0.0133692
0.0128372
0.0123609
0.0118602
0.0113045
0.0107236
0.010175
0.00971356
0.00937286
0.00916628
0.00908938
0.0091139
0.00922508
0.00940297
0.00962601
0.00987596
0.0101372
0.0103964
0.0106419
0.0108634
0.0110511
0.0111958
0.0112883
0.0113182
0.0104138
0.0113503
0.0123757
0.0134644
0.0145917
0.0157394
0.0168995
0.018076
0.0192848
0.0205522
0.0219064
0.023364
0.0248923
0.0263502
0.0274067
0.0275997
0.0269945
0.025596
0.0238359
0.0219914
0.0202317
0.0186385
0.017241
0.0160386
0.0150177
0.0141595
0.0134406
0.0128295
0.01228
0.0117426
0.0111943
0.0106468
0.0101341
0.0096948
0.00935758
0.00913812
0.00903797
0.00904056
0.00912368
0.0092791
0.00948391
0.00972049
0.00997309
0.0102278
0.0104725
0.0106958
0.0108874
0.0110368
0.011134
0.0111668
0.0104377
0.0114304
0.0125135
0.0136529
0.0148169
0.0159816
0.0171351
0.0182774
0.0194192
0.0205778
0.0217695
0.0229935
0.0242089
0.0252986
0.0260408
0.0261681
0.0257123
0.0246373
0.0232218
0.0216693
0.020125
0.0186745
0.0173598
0.0161946
0.015177
0.0142963
0.0135356
0.0128713
0.0122715
0.0117038
0.0111501
0.0106143
0.0101171
0.0096861
0.0093448
0.00910903
0.00898371
0.00896171
0.0090178
0.00914908
0.00933429
0.00955628
0.00979924
0.0100489
0.0102923
0.0105175
0.0107132
0.0108678
0.01097
0.0110061
0.010471
0.0115424
0.0127064
0.0139176
0.0151345
0.0163273
0.0174802
0.0185914
0.0196688
0.0207254
0.0217708
0.0227967
0.0237642
0.0245816
0.0250997
0.025156
0.0247691
0.0238937
0.0227163
0.0213838
0.0200148
0.0186895
0.0174542
0.0163309
0.0153258
0.0144351
0.0136476
0.0129467
0.0123102
0.0117159
0.0111504
0.0106141
0.0101196
0.0096871
0.00933597
0.00908071
0.00892891
0.00887856
0.00890875
0.00901387
0.00917794
0.00938405
0.00961637
0.00986027
0.0101022
0.0103294
0.0105295
0.0106899
0.0107978
0.0108377
0.0105159
0.0116946
0.0129689
0.0142774
0.0155664
0.0167988
0.0179568
0.0190385
0.0200524
0.0210105
0.0219196
0.0227749
0.0235386
0.0241435
0.0244887
0.0244755
0.0241049
0.0233507
0.022334
0.0211622
0.0199303
0.0187089
0.017544
0.0164616
0.0154728
0.014579
0.0137741
0.0130469
0.0123822
0.0117645
0.011184
0.0106394
0.0101392
0.00969796
0.00933199
0.00905448
0.00887448
0.00879318
0.0087976
0.00887435
0.0090159
0.00920484
0.00942554
0.00966309
0.00990336
0.0101327
0.0103379
0.0105048
0.0106193
0.0106636
0.0105758
0.0118991
0.0133218
0.0147598
0.016143
0.017427
0.0185939
0.0196451
0.0205932
0.021453
0.0222336
0.0229306
0.0235213
0.0239499
0.024151
0.0240694
0.0236808
0.0229951
0.0220822
0.0210232
0.0198936
0.0187538
0.0176471
0.0166002
0.0156272
0.0147332
0.0139158
0.0131683
0.0124803
0.0118411
0.0112434
0.0106858
0.0101739
0.00971866
0.00933369
0.00903168
0.0088218
0.00870757
0.00868435
0.00873226
0.00884963
0.00902009
0.00922823
0.00945892
0.00969748
0.00992945
0.0101404
0.010315
0.0104371
0.0104866
0.0106556
0.012174
0.013796
0.0154043
0.0169073
0.0182542
0.0194304
0.0204457
0.0213209
0.0220777
0.0227301
0.0232791
0.0237075
0.0239827
0.0240563
0.0238978
0.0234782
0.0228192
0.0219665
0.0209811
0.0199224
0.0188428
0.0177801
0.0167605
0.0157998
0.0149049
0.0140765
0.013311
0.0126019
0.0119417
0.0113252
0.010751
0.010223
0.00974973
0.00934275
0.009014
0.00877277
0.00862467
0.00856929
0.00859047
0.00868112
0.00883177
0.00902647
0.00924993
0.00948695
0.00972219
0.00994005
0.0101236
0.0102549
0.0103108
0.0107625
0.012547
0.0144383
0.0162692
0.0179211
0.019339
0.0205192
0.0214862
0.0222749
0.0229173
0.0234353
0.0238364
0.0241124
0.0242408
0.0241926
0.0239438
0.0234826
0.022821
0.0219934
0.0210487
0.0200349
0.018994
0.0179601
0.0169576
0.0160026
0.0151034
0.0142626
0.0134788
0.0127484
0.0120663
0.0114288
0.0108349
0.0102872
0.00979275
0.00936117
0.00900381
0.00872983
0.00854655
0.00845585
0.00845148
0.00851255
0.00864259
0.00882313
0.0090392
0.00927513
0.00951467
0.00974098
0.00993549
0.0100779
0.0101416
0.0109081
0.013062
0.0153215
0.0174432
0.0192745
0.0207648
0.021933
0.022829
0.023508
0.0240166
0.0243861
0.0246318
0.0247531
0.0247365
0.0245634
0.0242177
0.0236934
0.0230042
0.0221768
0.0212456
0.0202507
0.0192277
0.0182063
0.0172088
0.0162507
0.0153412
0.0144838
0.0136789
0.0129249
0.0122186
0.0115573
0.0109402
0.0103696
0.00985076
0.00939216
0.00900414
0.00869634
0.00847667
0.00834957
0.00831404
0.00834932
0.00845663
0.00862231
0.00883113
0.00906684
0.00931223
0.00954912
0.00975709
0.00991334
0.00998693
0.0111111
0.0137924
0.0165646
0.0190646
0.0211026
0.0226519
0.0237748
0.024561
0.0250941
0.0254389
0.0256369
0.025711
0.0256677
0.0254973
0.0251908
0.0247377
0.0241358
0.0233961
0.0225399
0.0215958
0.0205956
0.0195694
0.0185429
0.0175363
0.016564
0.0156353
0.0147545
0.0139232
0.0131411
0.0124063
0.0117171
0.0110729
0.0104755
0.00992913
0.00944096
0.00902033
0.00867745
0.00842017
0.00825537
0.00818541
0.00819631
0.00827934
0.00842999
0.00863221
0.00886921
0.00912274
0.00937317
0.00959803
0.00977173
0.00985805
0.0114052
0.0148683
0.0183709
0.0213577
0.0236135
0.0251784
0.0261937
0.0268077
0.02714
0.0272775
0.0272693
0.0271472
0.0269174
0.0265786
0.0261238
0.0255465
0.0248462
0.024032
0.0231215
0.0221379
0.0211075
0.0200554
0.0190041
0.0179713
0.0169706
0.0160106
0.0150965
0.0142303
0.013413
0.0126434
0.0119205
0.0112439
0.0106149
0.010037
0.00951615
0.0090607
0.00868053
0.00838504
0.00818114
0.00807431
0.00806217
0.00811885
0.00825539
0.00845248
0.00869324
0.00895831
0.00922645
0.00947287
0.00966903
0.0097722
0.0118556
0.0165392
0.0211091
0.0247017
0.0271382
0.028618
0.0294152
0.0297587
0.0298089
0.029678
0.0294142
0.0290556
0.0286103
0.0280773
0.0274504
0.0267246
0.0258997
0.0249829
0.0239887
0.0229361
0.0218469
0.0207425
0.0196421
0.0185616
0.0175137
0.0165062
0.0155443
0.014631
0.0137676
0.0129538
0.0121887
0.0114721
0.010805
0.0101902
0.00963244
0.00913909
0.00871944
0.0083837
0.00814032
0.00799588
0.00795561
0.00799127
0.00811388
0.00830834
0.00855686
0.00883859
0.00913061
0.00940526
0.00963057
0.00975644
0.0126056
0.0193331
0.0254963
0.0297697
0.0322273
0.0334113
0.033801
0.0337221
0.0333741
0.0328788
0.0322915
0.0316413
0.0309344
0.0301668
0.029331
0.0284207
0.0274347
0.026378
0.0252622
0.0241029
0.0229185
0.0217272
0.0205457
0.0193884
0.0182667
0.0171883
0.0161574
0.0151783
0.0142525
0.0133799
0.0125599
0.0117922
0.0110774
0.0104175
0.0098165
0.00928046
0.00881796
0.00843931
0.00815462
0.00797261
0.00790302
0.00792145
0.00803245
0.00822909
0.00849186
0.00879789
0.00912198
0.00943366
0.00969854
0.00985683
0.0140265
0.0245201
0.0330477
0.0378293
0.0398527
0.0403249
0.0399902
0.0392452
0.0383236
0.0373324
0.036316
0.0352892
0.0342484
0.0331823
0.032078
0.030926
0.0297221
0.0284691
0.0271755
0.0258545
0.0245214
0.0231923
0.0218821
0.0206035
0.0193676
0.0181816
0.0170484
0.0159738
0.0149594
0.0140048
0.0131094
0.0122725
0.0114943
0.0107763
0.0101214
0.00953444
0.00902318
0.00859751
0.00826975
0.00804889
0.00795038
0.00795715
0.00805928
0.00826797
0.0085572
0.00890124
0.00927232
0.00963598
0.00995575
0.0101619
0.0173403
0.0357186
0.0472978
0.0514764
0.0519134
0.0508894
0.0492543
0.0474667
0.0456934
0.0439943
0.0423786
0.0408328
0.0393335
0.0378555
0.0363763
0.0348799
0.0333577
0.0318093
0.0302406
0.0286628
0.0270895
0.0255352
0.0240136
0.0225369
0.0211157
0.0197574
0.0184633
0.0172407
0.0160909
0.0150128
0.0140049
0.0130663
0.0121966
0.0113963
0.0106675
0.0100139
0.00944215
0.00896124
0.00858643
0.00832734
0.00820408
0.00820754
0.00831151
0.00855135
0.0088902
0.00929699
0.00974117
0.0101808
0.0105802
0.0108611
0.028494
0.0657024
0.0776394
0.0768691
0.0729665
0.0687762
0.0648587
0.0613387
0.0582034
0.0553961
0.0528495
0.0504982
0.0482831
0.0461536
0.0440707
0.0420077
0.0399496
0.0378919
0.035839
0.0338011
0.0317917
0.0298258
0.0279166
0.026078
0.0243195
0.022651
0.0210708
0.0195886
0.0182034
0.0169119
0.0157116
0.0146003
0.013577
0.012641
0.0117935
0.0110364
0.0103766
0.00982066
0.0093888
0.0090947
0.00895731
0.00896742
0.00911503
0.00942879
0.00987003
0.0103937
0.0109676
0.0115312
0.0120565
0.0124635
0.103682
0.172131
0.155633
0.134184
0.118778
0.107661
0.0990892
0.0921449
0.0863392
0.0813545
0.076962
0.0729897
0.0693053
0.0658078
0.0624262
0.0591141
0.0558466
0.0526166
0.0494301
0.0463021
0.0432511
0.0402984
0.0374589
0.0347558
0.0321912
0.0297947
0.0275518
0.0254706
0.0235447
0.0217639
0.0201232
0.0186184
0.0172468
0.0160055
0.014895
0.0139149
0.0130753
0.0123785
0.0118564
0.0115438
0.0114279
0.0114989
0.0118196
0.0123511
0.0130648
0.0138708
0.0147465
0.0155676
0.0163405
0.0169838
1.91876
0.728053
0.461654
0.362253
0.311182
0.277611
0.252935
0.233768
0.218066
0.204791
0.193167
0.182642
0.172798
0.163358
0.154144
0.145047
0.136034
0.127121
0.118362
0.109825
0.101584
0.0937037
0.0862303
0.0792389
0.0726484
0.066593
0.0610534
0.0560055
0.0513954
0.0472016
0.0434084
0.0399981
0.0369564
0.0342684
0.0319305
0.0299361
0.0283136
0.0270628
0.0262738
0.0260806
0.0261779
0.0268775
0.0281482
0.0298417
0.0318722
0.0339607
0.0361292
0.0378947
0.039648
0.0404812
)
;

boundaryField
{
    floor
    {
        Cmu             0.09;
        kappa           0.41;
        E               9.8;
        type            epsilonWallFunction;
        value           nonuniform List<scalar> 
50
(
1.91876
0.722815
0.447641
0.33855
0.276849
0.231757
0.195201
0.163887
0.136291
0.111629
0.0898796
0.0702149
0.0495096
0.0256618
0.00515475
0.00065471
0.00276017
0.00480549
0.00706874
0.0091407
0.0113378
0.0129174
0.0138964
0.0141153
0.0138767
0.0125807
0.00971352
0.00622472
0.002129
0.00213208
0.00769835
0.0133303
0.0193764
0.0250672
0.0308286
0.0357318
0.0400517
0.0437234
0.0468296
0.049427
0.0515973
0.0534067
0.0548915
0.0561134
0.0572456
0.0585269
0.0601116
0.0620089
0.0641239
0.0676023
)
;
        lowReCorrection 0;
    }
    ceiling
    {
        Cmu             0.09;
        kappa           0.41;
        E               9.8;
        type            epsilonWallFunction;
        value           nonuniform List<scalar> 
50
(
1.91876
0.728053
0.461654
0.362253
0.311182
0.277611
0.252935
0.233768
0.218066
0.204791
0.193167
0.182642
0.172798
0.163358
0.154144
0.145047
0.136034
0.127121
0.118362
0.109825
0.101584
0.0937037
0.0862303
0.0792389
0.0726484
0.066593
0.0610534
0.0560055
0.0513954
0.0472016
0.0434084
0.0399981
0.0369564
0.0342684
0.0319305
0.0299361
0.0283136
0.0270628
0.0262738
0.0260806
0.0261779
0.0268775
0.0281482
0.0298417
0.0318722
0.0339607
0.0361292
0.0378947
0.039648
0.0404812
)
;
        lowReCorrection 0;
    }
    inlet
    {
        type            fixedValue;
        value           uniform 0.01;
    }
    outlet
    {
        type            zeroGradient;
    }
    fixedWalls
    {
        type            empty;
    }
    baffleFacesThermoBaffle1D_master
    {
        Cmu             0.09;
        kappa           0.41;
        E               9.8;
        type            epsilonWallFunction;
        value           nonuniform List<scalar> 
16
(
0.00065471
0.00105958
0.0021766
0.00334343
0.00446652
0.00552378
0.00653002
0.00748433
0.00838041
0.00921778
0.00999077
0.0107526
0.0114255
0.0123501
0.0133091
0.0371578
)
;
        lowReCorrection 0;
    }
    baffleFacesThermoBaffle1D_slave
    {
        Cmu             0.09;
        kappa           0.41;
        E               9.8;
        type            epsilonWallFunction;
        value           nonuniform List<scalar> 
16
(
0.00515475
0.0156742
0.029409
0.0437328
0.0586039
0.0728951
0.0865775
0.0998833
0.112926
0.125779
0.138666
0.152054
0.166588
0.183418
0.204378
0.232616
)
;
        lowReCorrection 0;
    }
    baffleFacesThermoBaffle3D_master
    {
        Cmu             0.09;
        kappa           0.41;
        E               9.8;
        type            epsilonWallFunction;
        value           nonuniform List<scalar> 
16
(
0.00213208
0.00274307
0.00514905
0.00755374
0.00965325
0.0114359
0.0128782
0.0139408
0.0145915
0.0145901
0.0145075
0.0137859
0.0127194
0.0110306
0.0118376
0.0430707
)
;
        lowReCorrection 0;
    }
    baffleFacesThermoBaffle3D_slave
    {
        Cmu             0.09;
        kappa           0.41;
        E               9.8;
        type            epsilonWallFunction;
        value           nonuniform List<scalar> 
16
(
0.002129
0.00238419
0.00346374
0.0043897
0.00502525
0.00539975
0.00573334
0.00602904
0.00637174
0.00727272
0.00982084
0.0151816
0.0230468
0.0333103
0.0493198
0.0848967
)
;
        lowReCorrection 0;
    }
}


// ************************************************************************* //
