/*--------------------------------*- C++ -*----------------------------------*\
| =========                 |                                                 |
| \\      /  F ield         | OpenFOAM: The Open Source CFD Toolbox           |
|  \\    /   O peration     | Version:  v1906                                 |
|   \\  /    A nd           | Web:      www.OpenFOAM.com                      |
|    \\/     M anipulation  |                                                 |
\*---------------------------------------------------------------------------*/
FoamFile
{
    version     2.0;
    format      ascii;
    class       volScalarField;
    location    "1500";
    object      k;
}
// * * * * * * * * * * * * * * * * * * * * * * * * * * * * * * * * * * * * * //

dimensions      [0 2 -2 0 0 0 0];


internalField   nonuniform List<scalar> 
2000
(
0.0963833
0.0502735
0.0365264
0.0303205
0.0265144
0.0235509
0.0210043
0.0186932
0.0165309
0.0144712
0.0125245
0.0106236
0.00841611
0.00543055
0.00213918
0.000540509
0.00122808
0.00177715
0.00229847
0.00272806
0.00314926
0.00343528
0.0036066
0.00364414
0.00360289
0.00337513
0.00284035
0.00211174
0.00118621
0.00118638
0.00243102
0.00350566
0.00449807
0.0053403
0.00613042
0.00676438
0.00729922
0.00773879
0.00810115
0.00839802
0.00864212
0.00884301
0.00900608
0.0091394
0.00926174
0.00939891
0.00956783
0.00976818
0.00998916
0.0103473
0.0992607
0.0838367
0.0704647
0.0614996
0.0549262
0.0495214
0.0447636
0.0404011
0.0362745
0.0322745
0.0283015
0.0241764
0.0195382
0.0135274
0.00534798
0.000887348
0.00258712
0.00365283
0.00467372
0.00555364
0.00633097
0.00693626
0.00735022
0.00748971
0.00728742
0.00660924
0.00542777
0.00383812
0.00152327
0.00167211
0.00474056
0.00686143
0.00886633
0.0106387
0.0122483
0.0136307
0.0148284
0.0158504
0.0167199
0.0174562
0.0180802
0.0186087
0.0190562
0.0194355
0.019765
0.0200548
0.0203234
0.0205711
0.0208283
0.021045
0.099175
0.0922616
0.082871
0.0746996
0.0678753
0.0619686
0.0566415
0.051669
0.0468815
0.0421388
0.0372984
0.032159
0.0263771
0.0191397
0.00813554
0.00143377
0.00371503
0.00499965
0.00612034
0.00709148
0.00793452
0.00858786
0.00900306
0.00910036
0.00878057
0.00791596
0.00654009
0.00482304
0.00195423
0.00254374
0.0065977
0.00898793
0.0112029
0.0132533
0.0151491
0.0168444
0.0183368
0.0196297
0.0207422
0.0216939
0.0225077
0.0232018
0.0237928
0.0242932
0.024718
0.025078
0.0253858
0.0256407
0.0258509
0.0259689
0.09914
0.0948078
0.0882442
0.0814846
0.0752133
0.0694642
0.0641013
0.0589832
0.0539703
0.0489288
0.0437129
0.0381277
0.0318337
0.02394
0.0105991
0.00190872
0.00456413
0.00599732
0.00719498
0.00823165
0.00911338
0.00977967
0.0101563
0.0101903
0.0097638
0.00879037
0.00731227
0.00552162
0.00228886
0.00328386
0.00784565
0.0103973
0.0127373
0.014953
0.0170276
0.0189193
0.0206065
0.0220858
0.0233703
0.0244799
0.0254345
0.026252
0.0269485
0.0275378
0.028033
0.0284441
0.0287798
0.0290395
0.0292237
0.0292991
0.0991363
0.0958596
0.0909623
0.0854367
0.0798965
0.0745467
0.0693853
0.0643429
0.0593215
0.0542067
0.0488627
0.0430995
0.0365576
0.0281803
0.012883
0.0023152
0.00527763
0.00683773
0.0081107
0.00921388
0.0101397
0.0108254
0.0111624
0.0111458
0.010632
0.00955784
0.00797605
0.00607809
0.00250524
0.00386708
0.00878159
0.0114522
0.0138823
0.0162127
0.0184184
0.0204544
0.0222895
0.0239154
0.0253405
0.0265806
0.0276522
0.0285736
0.0293607
0.0300269
0.030584
0.0310408
0.0314044
0.0316744
0.0318497
0.0319075
0.0991497
0.0964176
0.092519
0.0879313
0.0830836
0.0782001
0.0733435
0.068494
0.0635877
0.0585326
0.053204
0.0474103
0.0407524
0.0319841
0.0149004
0.00266749
0.00590476
0.0075891
0.00894683
0.0101254
0.0111101
0.0118302
0.0121681
0.0121207
0.011543
0.0103712
0.00864191
0.00652562
0.00262836
0.00432963
0.00951705
0.0122786
0.0147803
0.0172
0.0195094
0.0216594
0.023615
0.0253626
0.026906
0.0282567
0.0294312
0.0304459
0.0313156
0.0320527
0.0326681
0.0331697
0.0335634
0.0338496
0.0340267
0.0340783
0.0991705
0.0967711
0.0935079
0.0896108
0.0853551
0.080928
0.0764108
0.0718124
0.0670931
0.0621788
0.0569535
0.0512164
0.0445164
0.0354163
0.016711
0.00298236
0.00647048
0.00828267
0.00974331
0.0110158
0.0120814
0.0128637
0.0132401
0.0131981
0.0125872
0.0113221
0.00939115
0.0068918
0.00273589
0.00468646
0.0100872
0.0129258
0.0154933
0.017991
0.0203889
0.0226342
0.0246899
0.0265391
0.0281828
0.029631
0.0308979
0.0319979
0.0329444
0.0337487
0.0344205
0.034967
0.0353933
0.0356999
0.0358852
0.0359364
0.0991947
0.0970238
0.0941913
0.0908061
0.0870376
0.0830257
0.0788471
0.0745229
0.0700296
0.0653052
0.0602376
0.0546118
0.0479176
0.0385313
0.018382
0.00326634
0.0069891
0.00894419
0.0105325
0.0119253
0.0130972
0.013969
0.0144228
0.0144234
0.0138187
0.0124806
0.0103125
0.00726167
0.00282948
0.0049409
0.0105024
0.0134131
0.0160523
0.0186275
0.0211057
0.0234328
0.0255718
0.0275067
0.0292372
0.0307717
0.0321219
0.0333004
0.0343188
0.0351871
0.0359139
0.0365053
0.0369658
0.0372955
0.0374928
0.0375467
0.0992204
0.0972196
0.0946961
0.0916977
0.0883259
0.0846791
0.0808205
0.0767737
0.0725239
0.0680172
0.0631417
0.0576643
0.0510137
0.0413853
0.0199492
0.0035222
0.00747497
0.00960075
0.0113525
0.0128973
0.0141991
0.0151775
0.0157446
0.0158153
0.0152619
0.0138984
0.011509
0.00780549
0.00293581
0.0050932
0.0107433
0.0137474
0.0164769
0.0191375
0.0216925
0.0240906
0.0262997
0.0283067
0.0301117
0.0317218
0.0331468
0.0343971
0.0354825
0.0364116
0.0371916
0.0378275
0.0383228
0.0386773
0.0388886
0.038947
0.0992463
0.0973796
0.0950882
0.092389
0.0893408
0.08601
0.082445
0.0786668
0.0746649
0.07039
0.0657284
0.0604284
0.0538579
0.0440365
0.0214356
0.00375318
0.00794677
0.0102916
0.0122536
0.0139833
0.0154315
0.0165282
0.0172051
0.0173713
0.01691
0.0155905
0.0130668
0.00873796
0.00320529
0.00509397
0.010767
0.0139285
0.0167864
0.0195477
0.0221776
0.0246364
0.0269022
0.0289679
0.0308351
0.0325102
0.0340013
0.0353167
0.0364642
0.0374505
0.0382814
0.0389607
0.0394907
0.0398705
0.0400971
0.040161
0.0992717
0.0975146
0.0954042
0.0929415
0.090159
0.0870999
0.0837995
0.0802747
0.0765166
0.0724784
0.0680456
0.0629497
0.0565027
0.0465518
0.0228759
0.0039603
0.00843529
0.0110749
0.0133066
0.0152461
0.0168385
0.0180388
0.0188065
0.0190697
0.0187236
0.0175241
0.0150225
0.0102463
0.00391267
0.00507357
0.010608
0.0139753
0.0170127
0.0198906
0.0225894
0.025095
0.0274022
0.0295119
0.0314285
0.0331579
0.0347062
0.0360795
0.0372835
0.038323
0.039202
0.0399231
0.040487
0.0408921
0.0411344
0.0412045
0.0992961
0.0976309
0.0956655
0.0933931
0.0908302
0.0880042
0.0849397
0.0816495
0.0781254
0.0743235
0.0701298
0.0652664
0.059
0.0490106
0.0243256
0.00415928
0.00899348
0.0120467
0.0146126
0.0167616
0.0184648
0.0197244
0.0205389
0.0208724
0.0206368
0.0196088
0.0173024
0.0125227
0.00522916
0.0049041
0.0101823
0.0139325
0.0172111
0.020209
0.022959
0.0254901
0.0278189
0.0299561
0.0319083
0.0336805
0.0352765
0.0367002
0.0379548
0.0390429
0.0399668
0.0407273
0.0413239
0.0417536
0.0420117
0.0420885
0.0993189
0.0977318
0.0958848
0.0937677
0.0913875
0.0887608
0.0859047
0.0828285
0.079525
0.0759542
0.072007
0.0674071
0.0613996
0.0515185
0.025852
0.00433137
0.00971954
0.0133822
0.0163145
0.0186181
0.0203506
0.0215912
0.0223868
0.0227374
0.0225805
0.0217256
0.0197225
0.0153309
0.00690822
0.00464789
0.00963508
0.0139306
0.01748
0.0205608
0.0233212
0.0258443
0.0281695
0.0303147
0.0322872
0.0340898
0.0357237
0.0371897
0.0384884
0.0396203
0.0405854
0.0413827
0.0420101
0.0424636
0.0427374
0.042821
0.0993399
0.0978193
0.09607
0.0940807
0.0918527
0.0893959
0.0867221
0.0838385
0.080739
0.0773895
0.0736922
0.0693878
0.0637416
0.0542039
0.027565
0.00456177
0.010851
0.0153762
0.0186039
0.0209049
0.0225227
0.02363
0.0243201
0.0246187
0.0244924
0.0237832
0.0221173
0.0183231
0.00883302
0.00422602
0.0092738
0.0142479
0.0179607
0.0210147
0.023711
0.0261781
0.028468
0.0305991
0.0325752
0.0343952
0.0360565
0.0375564
0.0388926
0.0400628
0.0410649
0.0418961
0.0425524
0.0430285
0.0433175
0.0434081
0.0993587
0.0978948
0.0962262
0.0943421
0.0922408
0.0899278
0.0874117
0.0846982
0.0817836
0.0786406
0.075188
0.0712033
0.0660346
0.0571977
0.029627
0.00479526
0.0131308
0.0185376
0.0216908
0.0236819
0.0249798
0.0258161
0.0263008
0.0264701
0.0263087
0.0257015
0.0243748
0.0213275
0.011476
0.00442907
0.010057
0.0153233
0.0188092
0.0216296
0.0241545
0.0265066
0.0287254
0.030818
0.0327803
0.0346039
0.0362816
0.0378066
0.0391732
0.0403763
0.0414111
0.0422729
0.0429559
0.0434533
0.0437569
0.0438545
0.0993751
0.0979587
0.0963566
0.0945586
0.0925617
0.0903691
0.0879871
0.0854211
0.0826696
0.0797128
0.0764886
0.0728258
0.0682408
0.0606583
0.0322964
0.00950867
0.0189674
0.0235145
0.0256856
0.0269296
0.0276767
0.0281068
0.0282947
0.0282642
0.0279956
0.0274197
0.0263778
0.0242866
0.0164862
0.0104786
0.0142567
0.0175472
0.0200921
0.0224207
0.0246599
0.0268365
0.0289478
0.0309775
0.0329081
0.0347213
0.0364043
0.0379454
0.0393351
0.0405652
0.0416284
0.0425175
0.0432247
0.0437418
0.0440595
0.0441641
0.0993889
0.0980116
0.0964631
0.0947346
0.0928226
0.0907288
0.0884585
0.0860171
0.0834049
0.0806084
0.0775819
0.0741998
0.0701343
0.0640764
0.0475319
0.0325017
0.0300853
0.0301116
0.0303505
0.0304889
0.0305138
0.0304426
0.0302673
0.0299804
0.0295507
0.0289261
0.0280205
0.0265973
0.0236084
0.0204253
0.0196621
0.0202575
0.0216205
0.023332
0.0252109
0.0271649
0.0291364
0.0310804
0.0329592
0.0347483
0.0364257
0.037974
0.0393795
0.0406305
0.0417173
0.0426304
0.043361
0.0438973
0.0442287
0.04434
0.0994
0.0980535
0.0965473
0.0948733
0.0930281
0.0910132
0.0888333
0.0864937
0.0839962
0.0813314
0.0784639
0.0752978
0.0715854
0.0665973
0.0569201
0.0455648
0.0396388
0.0366782
0.0350943
0.0340959
0.0333622
0.0327514
0.0321852
0.0316122
0.0309849
0.0302522
0.0293515
0.0281616
0.0263177
0.024135
0.0228401
0.0225822
0.0231127
0.0242692
0.0257742
0.0274803
0.0292882
0.0311248
0.0329372
0.0346889
0.0363498
0.0378966
0.0393108
0.0405773
0.0416834
0.0426172
0.0433678
0.0439213
0.0442654
0.0443834
0.0994081
0.0980847
0.0966098
0.0949764
0.0931817
0.091227
0.0891171
0.0868574
0.0844504
0.081889
0.0791435
0.0761368
0.0726716
0.0683102
0.0615197
0.0529983
0.0464799
0.0422111
0.039427
0.037509
0.0360932
0.0349712
0.0340189
0.0331537
0.032313
0.0314414
0.0304818
0.0293562
0.0278985
0.0262311
0.0249519
0.024354
0.0244469
0.0251521
0.0263118
0.0277662
0.0293972
0.0311107
0.0328434
0.0345459
0.0361802
0.0377169
0.0391327
0.0404089
0.0415295
0.0424802
0.0432477
0.0438168
0.044173
0.0442977
0.0994134
0.0981052
0.0966513
0.0950455
0.0932855
0.0913735
0.0893142
0.0871136
0.0847744
0.0822905
0.0796353
0.0767435
0.0734562
0.0694798
0.0640595
0.0573415
0.0512464
0.0465716
0.0431303
0.0405718
0.0386111
0.0370459
0.0357397
0.0345959
0.0335422
0.0325194
0.0314724
0.0303418
0.029041
0.0276362
0.0264441
0.0257136
0.0255583
0.0259248
0.0267907
0.0280048
0.0294527
0.0310351
0.0326769
0.0343197
0.035918
0.0374364
0.038847
0.0401271
0.0412577
0.042222
0.043004
0.0435871
0.0439547
0.0440859
0.0994158
0.0981152
0.0966721
0.0950811
0.0933411
0.0914548
0.0894281
0.0872671
0.0849749
0.0825458
0.0799551
0.0771461
0.0739907
0.0702822
0.0656254
0.0600376
0.0545596
0.0499052
0.046171
0.0432144
0.0408553
0.0389326
0.0373213
0.0359257
0.0346712
0.0334974
0.0323511
0.031183
0.0299417
0.028669
0.0275452
0.0267576
0.0264338
0.0265796
0.0271885
0.028181
0.0294479
0.0308934
0.0324358
0.0340098
0.0355636
0.0370561
0.0384549
0.0397335
0.0408698
0.0418442
0.0426385
0.0432342
0.0436124
0.04375
0.0994153
0.0981145
0.0966722
0.0950837
0.0933489
0.0914722
0.0894607
0.0873213
0.0850576
0.082664
0.0801178
0.0773693
0.074317
0.0708118
0.0666327
0.0617868
0.0568707
0.0524098
0.0485985
0.0454247
0.0427962
0.0406021
0.0387411
0.0371278
0.0356919
0.0343751
0.033127
0.0319047
0.0306737
0.0294602
0.0283745
0.0275529
0.0271104
0.027102
0.0274862
0.0282821
0.0293747
0.0306808
0.0321176
0.0336153
0.035117
0.0365768
0.0379577
0.0392296
0.0403674
0.0413487
0.0421531
0.0427599
0.043148
0.043292
0.0994119
0.0981033
0.0966516
0.0950529
0.0933089
0.0914259
0.089413
0.0872785
0.0850266
0.0826524
0.0801349
0.0774321
0.0744632
0.071118
0.0672713
0.062937
0.0584761
0.0542587
0.0504884
0.0472208
0.0444257
0.0420371
0.0399809
0.0381868
0.036593
0.0351458
0.0337991
0.0325149
0.0312669
0.0300707
0.0289972
0.0281459
0.0276142
0.0274697
0.0276879
0.0282988
0.0292257
0.0303927
0.0317197
0.0331351
0.0345782
0.0359987
0.0373561
0.0386165
0.0397517
0.0407369
0.0415493
0.0421658
0.0425632
0.0427135
0.0994058
0.0980815
0.0966097
0.0949877
0.0932194
0.0913141
0.0892835
0.0871381
0.0848832
0.0825152
0.080016
0.0773476
0.0744458
0.0712313
0.0676318
0.063666
0.0595642
0.055588
0.0519168
0.048634
0.0457488
0.0432298
0.0410278
0.0390891
0.0373622
0.0358002
0.0343617
0.0330134
0.0317334
0.0305297
0.0294498
0.0285668
0.0279608
0.0276987
0.0277815
0.0282236
0.0289947
0.0300248
0.0312395
0.0325677
0.0339464
0.0353222
0.0366507
0.037895
0.039024
0.0400103
0.0408285
0.0414535
0.0418598
0.0420163
0.0993971
0.0980489
0.0965457
0.0948864
0.093078
0.0911339
0.0890695
0.086898
0.0846266
0.0822528
0.0797606
0.0771177
0.074273
0.0711692
0.0677605
0.0640709
0.060254
0.0564965
0.0529485
0.0496983
0.0467772
0.0441784
0.0418732
0.0398233
0.037988
0.0363279
0.0348071
0.0333965
0.0320769
0.0308516
0.0297525
0.0288347
0.0281623
0.0277952
0.0277676
0.0280504
0.0286772
0.0295734
0.0306746
0.0319118
0.0332212
0.0345471
0.035842
0.0370661
0.0381854
0.0391699
0.039992
0.0406244
0.0410391
0.0412019
0.0993858
0.0980051
0.0964582
0.0947461
0.0928805
0.0908802
0.0887654
0.0865531
0.0842524
0.0818623
0.0793688
0.0767442
0.0739476
0.070936
0.0676828
0.0642066
0.0606184
0.0570537
0.0536346
0.0504444
0.047525
0.0448851
0.042512
0.0403805
0.03846
0.0367187
0.0351264
0.0336582
0.0322966
0.0310421
0.029916
0.0289588
0.0282256
0.0277688
0.0276293
0.0277853
0.0282706
0.0290356
0.0300225
0.0311658
0.0324019
0.0336734
0.0349304
0.0361303
0.0372366
0.0382168
0.0390411
0.0396799
0.0401025
0.0402719
0.0993721
0.0979497
0.096345
0.0945623
0.0926202
0.0905447
0.0883623
0.0860943
0.0837522
0.0813364
0.0788345
0.0762224
0.0734664
0.0705336
0.0674069
0.0641049
0.0607022
0.0573064
0.054013
0.0508977
0.048005
0.0453531
0.0429406
0.040753
0.0387687
0.0369629
0.0353104
0.0337898
0.0323875
0.0311009
0.0299445
0.0289488
0.0281581
0.0276196
0.0273745
0.0274216
0.0277709
0.0284084
0.0292813
0.0303285
0.0314877
0.0327008
0.0339159
0.035088
0.0361782
0.0371518
0.0379767
0.0386209
0.0390514
0.0392276
0.099356
0.0978815
0.0962024
0.0943283
0.0922872
0.0901153
0.0878468
0.085508
0.0831129
0.0806629
0.0781467
0.0755422
0.072821
0.0699563
0.0669365
0.0637765
0.0605341
0.0572846
0.0541099
0.0510766
0.0482274
0.045585
0.0431561
0.0409343
0.0389052
0.0370503
0.0353498
0.0337859
0.0323462
0.0310277
0.0298398
0.0288059
0.0279616
0.0273487
0.0270061
0.0269566
0.0271733
0.0276895
0.028449
0.0293984
0.0304778
0.0316288
0.0327984
0.0339394
0.0350108
0.0359755
0.0367995
0.0374483
0.0378865
0.0380699
0.0993378
0.0977991
0.0960252
0.094034
0.0918673
0.0895745
0.0871999
0.0847748
0.0823157
0.0798241
0.0772887
0.0746885
0.0719977
0.0691935
0.0662661
0.0632271
0.0601197
0.0570037
0.0539436
0.0509943
0.0481986
0.0455814
0.0431545
0.0409171
0.0388604
0.0369715
0.0352348
0.033636
0.0321647
0.030817
0.0295992
0.0285293
0.027636
0.0269555
0.0265251
0.0263749
0.0264832
0.0268772
0.0275236
0.028374
0.0293709
0.0304568
0.0315775
0.0326844
0.0337342
0.034688
0.0355096
0.0361624
0.0366083
0.0367993
0.0993176
0.0977
0.095805
0.0936641
0.0913391
0.0888974
0.0863947
0.0838679
0.0813346
0.0787953
0.0762375
0.0736397
0.070977
0.0682282
0.0653835
0.0624511
0.0594634
0.0564672
0.0535142
0.0506519
0.0479187
0.0453411
0.0429312
0.040693
0.0386237
0.0367148
0.0349539
0.0333297
0.0318335
0.0304614
0.0292176
0.0281154
0.0271783
0.0264374
0.0259275
0.0256802
0.0256949
0.0259671
0.0265028
0.0272532
0.0281656
0.0291833
0.0302522
0.031322
0.0323478
0.0332887
0.0341066
0.0347627
0.0352164
0.0354157
0.0992956
0.0975802
0.095529
0.0931954
0.0906714
0.0880478
0.0853936
0.08275
0.0801339
0.077543
0.0749617
0.0723667
0.0697321
0.0670365
0.064269
0.0614341
0.0585562
0.0556713
0.0528214
0.0500471
0.0473827
0.0448533
0.0424733
0.0402495
0.0381821
0.0362664
0.0344933
0.0328537
0.0313408
0.029951
0.0286865
0.0275575
0.0265829
0.0257893
0.0252084
0.0248713
0.0247972
0.0249572
0.0253836
0.0260334
0.0268595
0.0278065
0.0288206
0.0298506
0.03085
0.0317761
0.0325888
0.0332476
0.0337093
0.0339177
0.0992719
0.097433
0.0951758
0.0925914
0.089817
0.0869736
0.0841436
0.0813697
0.0786651
0.0760219
0.0734193
0.0708303
0.0682267
0.0655853
0.0628935
0.0601522
0.0573785
0.0546002
0.0518516
0.0491672
0.0465774
0.0441057
0.0417673
0.0395705
0.0375183
0.0356088
0.0338356
0.0321915
0.0306713
0.0292716
0.0279937
0.0268451
0.0258407
0.0250031
0.0243607
0.0239438
0.023779
0.0238467
0.0241616
0.0247109
0.025449
0.026323
0.0272796
0.0282671
0.0292376
0.0301467
0.0309529
0.0316135
0.0320835
0.0323018
0.0992471
0.0972468
0.0947095
0.0917933
0.0887036
0.0855981
0.0825692
0.0796556
0.0768615
0.0741701
0.0715528
0.0689771
0.0664112
0.0638293
0.0612159
0.0585682
0.0558974
0.0532249
0.0505787
0.047988
0.0454794
0.0430748
0.0407893
0.0386324
0.0366084
0.0347182
0.0329577
0.031321
0.0298041
0.0284043
0.027122
0.0259626
0.0249377
0.0240662
0.0233728
0.0228867
0.0226352
0.0226279
0.0228272
0.0232794
0.0239283
0.0247273
0.0256238
0.026566
0.0275049
0.0283947
0.0291924
0.0298538
0.0303319
0.030561
0.0992219
0.0970002
0.094066
0.0907027
0.0872174
0.0838061
0.0805607
0.0775057
0.0746293
0.0719009
0.0692819
0.0667325
0.0642161
0.0617034
0.0591756
0.0566263
0.054062
0.0514989
0.0489596
0.0464689
0.0440501
0.0417233
0.0395031
0.0373993
0.0354178
0.0335611
0.0318272
0.0302111
0.0287101
0.0273219
0.0260462
0.0248869
0.0238529
0.0229594
0.0222276
0.0216842
0.0213572
0.0212689
0.0213782
0.0217302
0.0222883
0.0230102
0.0238438
0.0247376
0.0256418
0.0265092
0.0272958
0.0279561
0.0284418
0.0286828
0.0991979
0.0966487
0.0931224
0.0891475
0.0851735
0.0814193
0.0779534
0.0747694
0.0718306
0.0690875
0.0664889
0.0639864
0.0615376
0.0591097
0.0566806
0.0542408
0.0517925
0.0493476
0.0469245
0.0445441
0.0422271
0.0399914
0.0378513
0.0358167
0.0338938
0.0320868
0.0303957
0.0288161
0.0273461
0.0259838
0.0247287
0.0235832
0.0225541
0.0216529
0.0208976
0.0203116
0.0199221
0.0197568
0.0197936
0.0200455
0.0205128
0.0211554
0.021923
0.0227648
0.0236303
0.0244712
0.0252425
0.0258983
0.0263902
0.0266435
0.0991789
0.0960889
0.0916251
0.0868106
0.0822575
0.0781493
0.0744868
0.0712114
0.0682502
0.0655308
0.0629877
0.0605635
0.0582105
0.0558921
0.0535835
0.051272
0.048957
0.0466468
0.0443561
0.0421029
0.0399053
0.0377797
0.0357395
0.0337944
0.0319509
0.0302141
0.0285863
0.0270631
0.0256434
0.0243257
0.0231092
0.0219953
0.0209887
0.0200982
0.0193378
0.0187273
0.0182919
0.018059
0.0180438
0.0181918
0.0185725
0.0191337
0.0198314
0.0206161
0.0214367
0.0222444
0.0229939
0.0236392
0.0241334
0.0243983
0.0991741
0.0950345
0.0889985
0.083069
0.0779002
0.0734917
0.069712
0.0664251
0.0635141
0.0608826
0.0584512
0.0561548
0.0539414
0.0517716
0.0496186
0.047468
0.0453165
0.0431699
0.0410401
0.0389425
0.0368931
0.0349069
0.0329963
0.0311708
0.0294364
0.0277987
0.026263
0.0248242
0.0234818
0.0222345
0.0210815
0.0200237
0.0190637
0.0182079
0.0174666
0.0168556
0.0163963
0.0161151
0.0160451
0.01612
0.016411
0.0168866
0.0175086
0.0182276
0.018993
0.0197558
0.0204715
0.0210946
0.0215832
0.0218559
0.0991999
0.0925025
0.0837889
0.0765691
0.0709409
0.0664361
0.0627247
0.059583
0.0568532
0.0544201
0.0521954
0.0501103
0.0481112
0.0461582
0.0442242
0.042294
0.0403631
0.0384353
0.0365206
0.0346321
0.0327841
0.0309899
0.0292611
0.027607
0.0260319
0.0245413
0.0231442
0.021835
0.0206128
0.0194769
0.0184269
0.0174628
0.0165862
0.0158008
0.0151136
0.014536
0.0140846
0.0137809
0.0136672
0.0136922
0.0138949
0.0142786
0.0148129
0.0154491
0.0161384
0.0168335
0.017492
0.0180698
0.0185358
0.0188034
0.099268
0.0841884
0.0716535
0.0637117
0.0583632
0.0543234
0.0510968
0.0484281
0.0461444
0.0441324
0.0423077
0.0406062
0.0389791
0.0373906
0.035817
0.0342442
0.0326679
0.0310908
0.0295211
0.0279697
0.0264487
0.0249694
0.0235423
0.022176
0.0208719
0.0196315
0.0184703
0.0173836
0.0163691
0.0154273
0.0145581
0.0137615
0.0130378
0.0123887
0.0118177
0.0113317
0.0109416
0.0106605
0.010524
0.0105288
0.0106353
0.0109145
0.0113268
0.0118354
0.0123953
0.0129677
0.0135138
0.0139926
0.0143967
0.0146179
0.0963831
0.0505161
0.0372848
0.0317196
0.0286635
0.0265629
0.0249645
0.0236867
0.0226137
0.0216863
0.0208577
0.0200929
0.0193642
0.0186523
0.0179441
0.0172309
0.0165094
0.0157801
0.0150466
0.014314
0.0135886
0.0128764
0.0121822
0.0115145
0.0108668
0.0102541
0.00967716
0.00913604
0.00862745
0.00815139
0.00770849
0.00729912
0.00692403
0.00658383
0.00628055
0.00601583
0.00579586
0.00562331
0.00551227
0.00548438
0.00549727
0.00559338
0.00576752
0.00599612
0.00626499
0.00653591
0.00681161
0.00703223
0.007248
0.00735015
)
;

boundaryField
{
    floor
    {
        type            kqRWallFunction;
        value           nonuniform List<scalar> 
50
(
0.0963833
0.0502735
0.0365264
0.0303205
0.0265144
0.0235509
0.0210043
0.0186932
0.0165309
0.0144712
0.0125245
0.0106236
0.00841611
0.00543055
0.00213918
0.000540509
0.00122808
0.00177715
0.00229847
0.00272806
0.00314926
0.00343528
0.0036066
0.00364414
0.00360289
0.00337513
0.00284035
0.00211174
0.00118621
0.00118638
0.00243102
0.00350566
0.00449807
0.0053403
0.00613042
0.00676438
0.00729922
0.00773879
0.00810115
0.00839802
0.00864212
0.00884301
0.00900608
0.0091394
0.00926174
0.00939891
0.00956783
0.00976818
0.00998916
0.0103473
)
;
    }
    ceiling
    {
        type            kqRWallFunction;
        value           nonuniform List<scalar> 
50
(
0.0963831
0.0505161
0.0372848
0.0317196
0.0286635
0.0265629
0.0249645
0.0236867
0.0226137
0.0216863
0.0208577
0.0200929
0.0193642
0.0186523
0.0179441
0.0172309
0.0165094
0.0157801
0.0150466
0.014314
0.0135886
0.0128764
0.0121822
0.0115145
0.0108668
0.0102541
0.00967716
0.00913604
0.00862745
0.00815139
0.00770849
0.00729912
0.00692403
0.00658383
0.00628055
0.00601583
0.00579586
0.00562331
0.00551227
0.00548438
0.00549727
0.00559338
0.00576752
0.00599612
0.00626499
0.00653591
0.00681161
0.00703223
0.007248
0.00735015
)
;
    }
    inlet
    {
        type            fixedValue;
        value           uniform 0.1;
    }
    outlet
    {
        type            zeroGradient;
    }
    fixedWalls
    {
        type            empty;
    }
    baffleFacesThermoBaffle1D_master
    {
        type            kqRWallFunction;
        value           nonuniform List<scalar> 
16
(
0.000540509
0.000887348
0.00143377
0.00190872
0.0023152
0.00266749
0.00298236
0.00326634
0.0035222
0.00375318
0.0039603
0.00415928
0.00433137
0.00456177
0.00479526
0.00950867
)
;
    }
    baffleFacesThermoBaffle1D_slave
    {
        type            kqRWallFunction;
        value           nonuniform List<scalar> 
16
(
0.00213918
0.00534798
0.00813554
0.0105991
0.012883
0.0149004
0.016711
0.018382
0.0199492
0.0214356
0.0228759
0.0243256
0.025852
0.027565
0.029627
0.0322964
)
;
    }
    baffleFacesThermoBaffle3D_master
    {
        type            kqRWallFunction;
        value           nonuniform List<scalar> 
16
(
0.00118638
0.00167211
0.00254374
0.00328386
0.00386708
0.00432963
0.00468646
0.0049409
0.0050932
0.00509397
0.00507357
0.0049041
0.00464789
0.00422602
0.00442907
0.0104786
)
;
    }
    baffleFacesThermoBaffle3D_slave
    {
        type            kqRWallFunction;
        value           nonuniform List<scalar> 
16
(
0.00118621
0.00152327
0.00195423
0.00228886
0.00250524
0.00262836
0.00273589
0.00282948
0.00293581
0.00320529
0.00391267
0.00522916
0.00690822
0.00883302
0.011476
0.0164862
)
;
    }
}


// ************************************************************************* //
