/*--------------------------------*- C++ -*----------------------------------*\
| =========                 |                                                 |
| \\      /  F ield         | OpenFOAM: The Open Source CFD Toolbox           |
|  \\    /   O peration     | Version:  v1906                                 |
|   \\  /    A nd           | Web:      www.OpenFOAM.com                      |
|    \\/     M anipulation  |                                                 |
\*---------------------------------------------------------------------------*/
FoamFile
{
    version     2.0;
    format      ascii;
    class       volScalarField;
    location    "1500";
    object      nut;
}
// * * * * * * * * * * * * * * * * * * * * * * * * * * * * * * * * * * * * * //

dimensions      [0 2 -1 0 0 0 0];


internalField   nonuniform List<scalar> 
2000
(
0.000435738
0.000314698
0.000268243
0.000244395
0.000228541
0.000215391
0.000203412
0.000191895
0.000180455
0.000168839
0.000157072
0.000144663
0.000128759
0.000103429
7.98968e-05
4.01606e-05
4.91765e-05
5.91499e-05
6.72634e-05
7.32778e-05
7.87286e-05
8.22227e-05
8.42432e-05
8.46728e-05
8.419e-05
8.14927e-05
7.47496e-05
6.44768e-05
5.94826e-05
5.94141e-05
6.90909e-05
8.29741e-05
9.39768e-05
0.000102392
0.000109716
0.000115251
0.000119722
0.000123275
0.000126129
0.00012842
0.000130273
0.000131779
0.000132987
0.000133971
0.000134861
0.000135844
0.00013706
0.000138489
0.000140049
0.00014254
0.00855128
0.00366987
0.00289404
0.00260126
0.00240518
0.00223997
0.00209128
0.00195423
0.00182525
0.00170181
0.0015782
0.00144262
0.0012653
0.00088829
0.000164225
6.68798e-05
0.000285809
0.000395693
0.000514327
0.000618862
0.000706827
0.000772699
0.000815623
0.000829792
0.000801803
0.000723192
0.000580379
0.000372681
8.75899e-05
9.17352e-05
0.000356456
0.000533726
0.000707841
0.000852423
0.000972955
0.00106953
0.00114874
0.00121483
0.00126933
0.00131461
0.00135229
0.00138384
0.00141019
0.00143229
0.0014511
0.00146598
0.00147748
0.00148815
0.00150257
0.00151179
0.0310598
0.0116332
0.00797577
0.0066031
0.00583565
0.0052874
0.00484804
0.00446707
0.00411775
0.00378034
0.00342999
0.00302341
0.00246408
0.00151806
0.000202551
8.50012e-05
0.000570925
0.000819023
0.0010332
0.0012145
0.00136324
0.00146618
0.00151569
0.00151051
0.0014268
0.0012585
0.000995212
0.000654122
9.92315e-05
0.0001131
0.000737068
0.00110005
0.00142369
0.0017057
0.00195205
0.00216296
0.00234226
0.00249501
0.00262416
0.00273333
0.00282549
0.00290328
0.00296879
0.00302391
0.00307013
0.00310795
0.00313861
0.0031649
0.003189
0.00320203
0.0509953
0.0225931
0.0147901
0.0116322
0.00991719
0.00876223
0.00789149
0.00716487
0.00651355
0.00588894
0.00523912
0.00448599
0.00348801
0.00200441
0.000231194
9.80695e-05
0.000773791
0.00117312
0.00146653
0.00170217
0.00188223
0.00199571
0.0020275
0.00198964
0.00184686
0.00160062
0.00124924
0.000797213
0.00010741
0.000128484
0.0010144
0.00158041
0.00204411
0.00245077
0.00281162
0.00312849
0.00340427
0.00364327
0.00384905
0.00402564
0.00417665
0.00430542
0.00441477
0.00450721
0.00458478
0.00464879
0.00470084
0.00474288
0.00477514
0.00479077
0.0630296
0.0336373
0.0224406
0.0173045
0.0144267
0.012527
0.0111081
0.00995614
0.00893908
0.00797173
0.00697118
0.00582775
0.00437359
0.00239576
0.000254888
0.000108007
0.000918421
0.00145632
0.0018196
0.00209344
0.00229435
0.0024143
0.00242357
0.0023543
0.00215534
0.00183137
0.00138889
0.000846594
0.000112404
0.000139423
0.00119339
0.00195565
0.00255327
0.00307388
0.00353925
0.00395388
0.00432032
0.00464208
0.00492276
0.00516638
0.00537684
0.00555784
0.00571267
0.00584418
0.00595472
0.00604609
0.00611988
0.00617724
0.00621744
0.00623526
0.0701398
0.0431393
0.0300407
0.0232029
0.0191528
0.0164392
0.0144227
0.0127849
0.0113559
0.0100051
0.00861842
0.0070607
0.00515757
0.00272358
0.000274119
0.000115934
0.00102474
0.00167884
0.00210219
0.00240866
0.00262598
0.00274943
0.00274514
0.00264407
0.00239609
0.00200108
0.00147052
0.000848317
0.000115143
0.000147527
0.00131239
0.00223118
0.00295225
0.00357906
0.00414217
0.00464872
0.00510118
0.00550231
0.00585547
0.0061646
0.00643376
0.00666682
0.0068673
0.00703824
0.00718219
0.00730109
0.00739643
0.00746878
0.00751705
0.00753712
0.0745911
0.0507667
0.0370137
0.0289605
0.0238795
0.0203742
0.0177404
0.0156003
0.0137281
0.0119681
0.0101744
0.00819544
0.00585504
0.00300007
0.000290296
0.000122588
0.00110983
0.00185282
0.00232984
0.00266663
0.00290153
0.00303299
0.0030257
0.00289919
0.00261354
0.00215628
0.00153849
0.000827164
0.000117499
0.000153489
0.00138419
0.00241536
0.00324712
0.00397387
0.0046302
0.00522482
0.00575989
0.00623752
0.0066608
0.00703361
0.00736009
0.00764423
0.00788969
0.00809962
0.00827666
0.00842278
0.00853928
0.00862641
0.00868295
0.00870556
0.0775565
0.0567332
0.0431056
0.0343213
0.0284256
0.0242115
0.0209859
0.0183423
0.016023
0.0138419
0.0116342
0.00923508
0.00647313
0.00323772
0.000304465
0.000128296
0.00117543
0.00198885
0.00251329
0.00288122
0.00313869
0.00328578
0.0032879
0.00314987
0.00283665
0.00232546
0.00162971
0.000813045
0.000119511
0.000157604
0.00140972
0.00252017
0.00344752
0.00426758
0.00501373
0.00569385
0.00630902
0.00686071
0.00735181
0.00778624
0.00816824
0.00850196
0.00879118
0.00903914
0.0092485
0.00942119
0.00955836
0.00966005
0.00972506
0.00975051
0.0796339
0.0613731
0.0482755
0.0391453
0.0326614
0.0278533
0.0240899
0.0209663
0.0182086
0.0156109
0.0129939
0.0101861
0.00702622
0.003444
0.000317178
0.000133231
0.00122321
0.00209387
0.00266042
0.00306251
0.00334998
0.00352083
0.00354952
0.00341286
0.00308224
0.00253141
0.00175925
0.000829204
0.000121742
0.000160001
0.00139084
0.00255444
0.00356227
0.00447069
0.00530415
0.00606754
0.00676066
0.00738398
0.0079404
0.00843403
0.00886935
0.00925072
0.00958206
0.0098667
0.0101073
0.0103057
0.0104629
0.0105789
0.0106525
0.0106811
0.0811449
0.0649912
0.0525898
0.0433819
0.0365098
0.0312302
0.0269993
0.0234354
0.0202628
0.0172652
0.0142546
0.0110577
0.0075259
0.00362702
0.000328782
0.000137536
0.00125599
0.00217221
0.00277678
0.00321809
0.00354496
0.00375224
0.00381369
0.00369371
0.00336249
0.00278116
0.00193751
0.000879626
0.000127139
0.000160066
0.00133235
0.00252532
0.00360261
0.00459496
0.00551411
0.00635827
0.0071266
0.00781866
0.00843737
0.00898727
0.00947324
0.00989991
0.0102714
0.010591
0.0108615
0.0110845
0.0112611
0.0113911
0.0114733
0.0115051
0.0822746
0.0678285
0.0561556
0.0470381
0.0399367
0.0343005
0.0296782
0.0257241
0.0221712
0.0188014
0.0154225
0.0118623
0.00798568
0.00379556
0.000339648
0.000141286
0.00127739
0.00222625
0.00286685
0.00335447
0.00373027
0.00398367
0.00408565
0.00399543
0.00367702
0.00308032
0.00217141
0.000974306
0.000140294
0.00015969
0.00123865
0.00244275
0.00358142
0.00465462
0.00565693
0.00657961
0.00741857
0.00817552
0.00885263
0.0094552
0.00998859
0.0104577
0.0108669
0.0112196
0.0115183
0.0117648
0.01196
0.0121034
0.012194
0.0122292
0.0831359
0.0700664
0.0590855
0.0501526
0.0429392
0.0370458
0.0321069
0.027818
0.023928
0.0202223
0.0165088
0.0126168
0.00842251
0.00395991
0.000350244
0.000144799
0.00129317
0.00225678
0.00293643
0.00347959
0.00391249
0.00421852
0.00436682
0.00431629
0.00402296
0.0034264
0.00246975
0.00114655
0.000162102
0.000157009
0.00110858
0.0023208
0.00351625
0.00466775
0.00574899
0.00674469
0.00764912
0.00846508
0.0091954
0.0098461
0.010423
0.0109314
0.0113755
0.0117589
0.0120841
0.0123526
0.0125653
0.0127217
0.0128205
0.012859
0.0838015
0.0718394
0.061482
0.0527776
0.0455339
0.0394648
0.0342788
0.0297123
0.0255339
0.0215366
0.0175299
0.013344
0.00886002
0.00413546
0.000361066
0.000147781
0.0013018
0.00226824
0.00299746
0.00360585
0.00410027
0.00446086
0.00465774
0.00465183
0.00439461
0.00381478
0.00283293
0.00140866
0.000186365
0.000152857
0.00096681
0.00218202
0.00343267
0.00465838
0.00580999
0.00686916
0.00783071
0.00869735
0.00947416
0.0101674
0.0107833
0.011327
0.0118029
0.0122145
0.0125641
0.0128531
0.0130822
0.0132508
0.0133574
0.0133993
0.0843199
0.0732462
0.0634323
0.054968
0.0477473
0.0415672
0.0361964
0.0314091
0.0269948
0.0227565
0.0185069
0.0140744
0.00933378
0.00434518
0.000372836
0.000151649
0.00128012
0.00227494
0.00307374
0.00375282
0.00430613
0.00471656
0.00495891
0.00499754
0.00478501
0.0042377
0.00325052
0.00173483
0.000210806
0.000145715
0.000848241
0.00206557
0.00337351
0.00465633
0.005863
0.00696945
0.00797471
0.0088817
0.00969666
0.0104258
0.0110752
0.01165
0.0121542
0.0125912
0.0129629
0.0132707
0.0135149
0.0136948
0.0138089
0.013854
0.0847244
0.0743596
0.0650075
0.0567747
0.0496096
0.0433683
0.0378674
0.0329142
0.0283188
0.0238959
0.0194635
0.0148465
0.00990532
0.00465634
0.00038653
0.000155496
0.00123544
0.00232098
0.00320622
0.0039487
0.00454729
0.00499442
0.00527225
0.00535009
0.00518684
0.00468889
0.00372059
0.00209569
0.000240329
0.000149143
0.000775046
0.00203213
0.00339251
0.00470676
0.00593143
0.00706179
0.0080928
0.00902662
0.0098697
0.010627
0.0113039
0.0119049
0.0124337
0.0128929
0.0132844
0.0136091
0.013867
0.0140573
0.0141782
0.0142265
0.0850381
0.075233
0.0662638
0.058242
0.0511499
0.0448852
0.0393016
0.0342343
0.0295132
0.0249666
0.0204217
0.0157057
0.0106595
0.00521152
0.000403564
0.000218994
0.00132201
0.00250889
0.00345683
0.00422971
0.0048448
0.00530592
0.00560237
0.00571137
0.00559028
0.00516323
0.00426758
0.00257272
0.000288134
0.000229437
0.000922685
0.00223313
0.00357274
0.00484763
0.00604401
0.00715706
0.00819477
0.00913901
0.00999892
0.0107757
0.0114735
0.0120957
0.0126449
0.0131232
0.0135319
0.0138716
0.0141416
0.0143412
0.0144684
0.0145196
0.0852773
0.075905
0.0672441
0.0594058
0.0523932
0.0461332
0.0405073
0.035374
0.0305815
0.0259737
0.0213931
0.0166867
0.0117307
0.00651306
0.00152427
0.00129243
0.00203901
0.00301368
0.0038995
0.00463372
0.00521937
0.00566285
0.00595468
0.00607805
0.00599492
0.00564829
0.00491572
0.00361764
0.00174785
0.00157653
0.00206622
0.0029262
0.00398395
0.00510168
0.00620863
0.00727075
0.00828397
0.00922333
0.0100864
0.0108738
0.0115858
0.0122238
0.0127892
0.0132831
0.0137063
0.0140589
0.0143405
0.0145489
0.0146819
0.0147357
0.0854531
0.076403
0.06798
0.0602932
0.053359
0.047124
0.0414901
0.0363344
0.0315216
0.026912
0.0223681
0.0177666
0.0130338
0.0082433
0.00375829
0.00294954
0.00328976
0.00390967
0.00457911
0.00518297
0.00568425
0.00607141
0.00633285
0.00645129
0.0063957
0.00611563
0.0055556
0.00460055
0.00334714
0.0029873
0.00319551
0.00375036
0.00451765
0.00543786
0.00641591
0.00739858
0.00836357
0.00928071
0.0101359
0.0109247
0.011644
0.0122926
0.0128701
0.0133764
0.0138116
0.014175
0.014466
0.0146817
0.0148197
0.0148759
0.0855731
0.0767455
0.0684928
0.0609232
0.0540606
0.0478645
0.0422511
0.0371114
0.0323241
0.0277654
0.0233182
0.0188891
0.0144451
0.0100998
0.00624841
0.00495461
0.00478548
0.00504464
0.0054438
0.00586058
0.00623297
0.00653151
0.00673701
0.00683011
0.00678438
0.00656272
0.0061297
0.00543975
0.00460338
0.00419244
0.00421114
0.00453541
0.00508645
0.00581036
0.00664519
0.00753106
0.00843115
0.00931241
0.010149
0.0109309
0.0116509
0.0123049
0.0128903
0.0134057
0.01385
0.014222
0.0145202
0.0147419
0.0148843
0.0149427
0.0856415
0.0769431
0.0687953
0.0613061
0.0545042
0.0483562
0.0427867
0.0376961
0.032974
0.0285099
0.0242047
0.0199889
0.0158563
0.0119323
0.00858976
0.00699115
0.00638907
0.00628911
0.00641717
0.00662595
0.00684464
0.00703193
0.00716136
0.00721087
0.00715669
0.00697122
0.00662913
0.00612413
0.00553948
0.00515284
0.0050675
0.00523397
0.00562212
0.00617382
0.00687313
0.00765621
0.00847893
0.00931708
0.0101254
0.0108929
0.0116076
0.012262
0.0128513
0.0133724
0.0138231
0.0142015
0.0145053
0.0147319
0.0148777
0.014938
0.0856601
0.0770002
0.0688917
0.0614446
0.0546895
0.0485949
0.0430884
0.0380752
0.0334515
0.0291166
0.024985
0.0210035
0.0171792
0.0136296
0.0106586
0.00891699
0.00794743
0.00755826
0.00742879
0.00743246
0.00748973
0.00755423
0.00759461
0.0075866
0.00750781
0.00733629
0.00705506
0.00666635
0.00622964
0.00589742
0.00575889
0.00582198
0.00608235
0.00650655
0.00707833
0.00776039
0.00850474
0.00928904
0.0100633
0.0108105
0.0115146
0.0121649
0.0127543
0.013278
0.0137325
0.014115
0.0144229
0.0146529
0.0148014
0.0148632
0.0856285
0.0769151
0.0687791
0.0613344
0.05461
0.0485717
0.043144
0.0382322
0.0337343
0.0295554
0.0256183
0.0218787
0.0183467
0.0151197
0.0124215
0.0106091
0.00941743
0.00877908
0.00842458
0.00823565
0.00813613
0.008076
0.00802158
0.00794731
0.00783165
0.00765588
0.00740733
0.00708983
0.00674297
0.00645516
0.0062954
0.00629239
0.0064577
0.00678655
0.00724257
0.00783229
0.00849996
0.00922522
0.00996085
0.0106828
0.0113718
0.012014
0.0126001
0.0131234
0.0135791
0.0139637
0.0142739
0.0145062
0.0146565
0.0147194
0.0855435
0.0766797
0.0684465
0.0609626
0.0542524
0.0482725
0.0429391
0.0381493
0.0337997
0.0297973
0.0260678
0.0225704
0.0193105
0.0163605
0.0138739
0.0120462
0.0107247
0.00989523
0.0093536
0.00899634
0.0087527
0.00857357
0.00842495
0.00828088
0.00812058
0.00792727
0.00769034
0.00741202
0.00711803
0.00686175
0.00669429
0.00664865
0.00674483
0.00699153
0.00736125
0.00786296
0.00845742
0.00912173
0.00981592
0.0105088
0.0111789
0.0118097
0.0123893
0.0129093
0.0133639
0.0137485
0.0140593
0.0142925
0.0144438
0.0145076
0.0853999
0.07628
0.0678755
0.0603101
0.0535981
0.0476793
0.0424533
0.0378057
0.0336257
0.0298162
0.0263042
0.0230456
0.0200381
0.0173301
0.0150206
0.0132176
0.0118287
0.0108651
0.0101772
0.00967987
0.00931042
0.00902395
0.00878687
0.00857408
0.00836574
0.00814639
0.00790632
0.00764563
0.00738033
0.00714371
0.00697282
0.00689839
0.00694319
0.00712235
0.00742317
0.0078453
0.00837163
0.00897443
0.0096268
0.0102875
0.0109356
0.0115518
0.0121221
0.0126364
0.0130875
0.0134701
0.0137798
0.0140126
0.014164
0.0142282
0.0851891
0.0756945
0.0670393
0.0593505
0.0526236
0.0467715
0.0416691
0.0371833
0.0331914
0.02959
0.0263009
0.023278
0.0205083
0.018019
0.0158687
0.0141186
0.0127079
0.0116598
0.0108656
0.0102584
0.00978536
0.0094062
0.00909015
0.00881349
0.00855757
0.00830805
0.00805564
0.00779867
0.00754619
0.00731935
0.0071451
0.00704992
0.0070554
0.00717852
0.00742589
0.00777406
0.00823873
0.00878322
0.00939073
0.0100177
0.0106413
0.0112403
0.0117987
0.0123049
0.0127504
0.013129
0.013436
0.013667
0.0138176
0.0138817
0.0848993
0.0748933
0.0659019
0.05805
0.0513007
0.0455268
0.040568
0.0362657
0.0324809
0.029101
0.0260416
0.0232521
0.0207094
0.0184232
0.016426
0.0147489
0.0133518
0.012261
0.0113971
0.0107099
0.0101563
0.00970176
0.00931892
0.00898616
0.00868633
0.00840618
0.00813677
0.00787523
0.00762591
0.00740234
0.00722365
0.00711087
0.00708539
0.00716411
0.00735905
0.00765163
0.00805591
0.00854595
0.00910584
0.00969814
0.0102953
0.0108749
0.0114193
0.0119151
0.0123528
0.0127255
0.013028
0.0132559
0.0134045
0.0134682
0.0845133
0.0738353
0.0644167
0.0563676
0.0495982
0.0439227
0.0391334
0.0350396
0.0314824
0.0283384
0.0255178
0.0229589
0.0206367
0.0185453
0.0166988
0.015111
0.0137577
0.0126575
0.0117564
0.0110173
0.0104064
0.00989483
0.00945909
0.00908012
0.00874252
0.00843426
0.00814678
0.007876
0.00762427
0.00739968
0.00721573
0.00708901
0.00703792
0.00707942
0.00722706
0.0074742
0.00782131
0.00826022
0.00877121
0.00932842
0.0098973
0.0104555
0.0109835
0.0114668
0.0118947
0.0122596
0.0125559
0.012779
0.0129247
0.0129874
0.0840075
0.0724655
0.0625247
0.0542559
0.0474835
0.0419388
0.0373529
0.0334967
0.0301895
0.0272962
0.0247203
0.0223979
0.0202905
0.0183904
0.0166968
0.015209
0.0139266
0.0128435
0.0119331
0.0111683
0.0105224
0.00997232
0.00949848
0.00908459
0.00871716
0.00838549
0.00808177
0.00780159
0.00754511
0.00731725
0.00712745
0.00698869
0.0069164
0.00692643
0.00703254
0.00724112
0.00753306
0.0079246
0.00838761
0.00890767
0.00944679
0.00998156
0.0104913
0.01096
0.0113759
0.0117309
0.0120191
0.012236
0.0123775
0.0124385
0.083348
0.0707098
0.0601531
0.051662
0.0449252
0.0395594
0.0352203
0.0316355
0.0286024
0.0259751
0.0236522
0.0215667
0.0196786
0.017967
0.0164284
0.0150554
0.0138551
0.0128159
0.0119223
0.0111547
0.0104947
0.00992366
0.00942673
0.0089901
0.00860213
0.00825366
0.00793763
0.00764963
0.00738865
0.0071574
0.00696239
0.0068136
0.0067238
0.00670726
0.00677772
0.00694555
0.00719526
0.00753823
0.00795626
0.00843464
0.00894337
0.00945284
0.00994213
0.010394
0.0107958
0.0111388
0.0114169
0.0116257
0.0117617
0.0118203
0.0824862
0.0684688
0.0572142
0.0485313
0.0418979
0.0367778
0.0327384
0.0294628
0.0267287
0.0243826
0.0223208
0.020475
0.0188034
0.0172832
0.0159036
0.0146599
0.0135517
0.0125748
0.0117189
0.01097
0.0103149
0.00974117
0.00923591
0.00878852
0.00838998
0.00803245
0.00770965
0.00741741
0.0071541
0.00692099
0.00672248
0.00656612
0.0064623
0.00642356
0.00646301
0.00659191
0.00680658
0.00710067
0.00747602
0.0079094
0.00838726
0.00886887
0.00933539
0.00976811
0.0101534
0.010482
0.0107477
0.0109466
0.0110755
0.0111308
0.0813494
0.0656079
0.0536057
0.0448131
0.0383884
0.0336009
0.0299222
0.0269955
0.0245844
0.0225328
0.0207385
0.0191347
0.0176798
0.0163503
0.0151341
0.0140259
0.0130245
0.0121255
0.0113231
0.0106104
0.00997798
0.00941682
0.00891772
0.00847251
0.008074
0.007716
0.00739314
0.00710164
0.00683967
0.00660759
0.0064083
0.00624738
0.00613321
0.00607649
0.00608932
0.00618297
0.00636372
0.00661315
0.00694522
0.00733654
0.00777654
0.00822886
0.00867012
0.00908098
0.00944706
0.00975863
0.0100096
0.0101963
0.0103163
0.0103672
0.0798247
0.0619463
0.0492169
0.0404721
0.0344051
0.0300548
0.026802
0.0242617
0.022194
0.0204466
0.0189233
0.0175615
0.0163217
0.0151831
0.0141323
0.013164
0.0122766
0.011468
0.0107353
0.0100745
0.00948025
0.00894652
0.00846713
0.00803616
0.00764825
0.00729881
0.00698338
0.00669864
0.00644282
0.00621575
0.00601927
0.00585747
0.0057369
0.00566655
0.00565724
0.00572016
0.00586457
0.00607822
0.00636442
0.00671395
0.00711158
0.00753215
0.00794497
0.00833074
0.00867442
0.00896596
0.00919937
0.00937143
0.00948054
0.00952586
0.0777274
0.0572443
0.0439441
0.0355067
0.0299892
0.0261905
0.0234251
0.0213018
0.0195908
0.0181508
0.0168975
0.0157735
0.0147466
0.0137959
0.0129102
0.0120847
0.0113179
0.0106092
0.00995775
0.00936203
0.00881935
0.00832638
0.00787931
0.00747422
0.00710735
0.00677564
0.00647562
0.00620436
0.00596033
0.00574311
0.00555381
0.00539536
0.00527279
0.00519341
0.00516659
0.00520291
0.00531206
0.00549572
0.00573237
0.00604062
0.00639169
0.00677801
0.007158
0.00751468
0.00783213
0.0081001
0.00831278
0.00846758
0.00856362
0.00860174
0.0747368
0.0512003
0.0377258
0.0299748
0.0252271
0.0220879
0.0198572
0.0181675
0.0168157
0.0156775
0.0146867
0.0137939
0.012972
0.0122041
0.011481
0.0107986
0.0101562
0.00955421
0.00899315
0.00847319
0.0079937
0.00755333
0.00715017
0.00678194
0.00644627
0.00614139
0.00586498
0.00561436
0.00538833
0.00518642
0.00500928
0.00485894
0.00473915
0.00465565
0.00461627
0.00463047
0.00470804
0.0048562
0.00505293
0.005315
0.00561982
0.00596302
0.00630613
0.00662893
0.00691552
0.00715573
0.00734401
0.00747866
0.0075597
0.00758916
0.0702563
0.0434843
0.0306107
0.0240263
0.0202594
0.0178568
0.0161801
0.0149202
0.013914
0.0130655
0.0123212
0.0116456
0.0110175
0.0104239
0.00985792
0.00931663
0.00879986
0.00830869
0.00784461
0.00740889
0.00700227
0.00662481
0.00627601
0.00595487
0.00566008
0.00539091
0.00514629
0.00492366
0.00472216
0.00454144
0.00438185
0.00424477
0.00413289
0.00405053
0.00400386
0.00400091
0.00405082
0.00416264
0.00432404
0.00453603
0.00479181
0.00508487
0.00538511
0.00566787
0.00591802
0.00612594
0.00628663
0.0063989
0.00646281
0.00648167
0.0631148
0.0338897
0.0228628
0.0179291
0.0152804
0.0136307
0.0124867
0.0116293
0.0109392
0.0103526
0.00983233
0.00935454
0.00890441
0.008473
0.00805557
0.00765033
0.00725758
0.00687878
0.00651585
0.00617064
0.00584464
0.00553879
0.00525352
0.00498874
0.00474387
0.00451888
0.00431394
0.00412658
0.00395623
0.00380273
0.00366631
0.00354789
0.00344928
0.00337353
0.00332518
0.00331053
0.00333732
0.00341395
0.00354328
0.00370047
0.00390476
0.00414079
0.00439192
0.00462656
0.00483313
0.00500304
0.00513192
0.00521928
0.0052651
0.00527216
0.0510484
0.0227568
0.0150719
0.0120646
0.0105206
0.00955195
0.00888001
0.00836599
0.00794566
0.00758285
0.00725576
0.00695036
0.00665768
0.00637229
0.00609134
0.00581393
0.00554064
0.00527292
0.00501267
0.0047618
0.00452202
0.00429462
0.00408052
0.0038801
0.00369322
0.00352016
0.00336218
0.0032169
0.00308406
0.0029637
0.00285605
0.0027617
0.00268175
0.00261816
0.00257392
0.00255346
0.0025625
0.00260819
0.00269846
0.00280846
0.0029545
0.00312689
0.00331944
0.00349676
0.00365189
0.00377824
0.00387196
0.00393371
0.0039626
0.00395827
0.0310822
0.0117211
0.00813829
0.00686433
0.00620744
0.0057758
0.00545948
0.00520899
0.00499809
0.00481151
0.00463945
0.00447529
0.0043146
0.00415465
0.00399404
0.0038324
0.00367028
0.00350879
0.00334937
0.00319352
0.00304267
0.00289794
0.00276033
0.0026303
0.00250784
0.00239305
0.00228795
0.00219051
0.00210069
0.00201879
0.00194503
0.00187978
0.00182361
0.00177754
0.00174317
0.00172307
0.00172058
0.00174043
0.00179057
0.00185525
0.0019399
0.0020462
0.00216654
0.0022782
0.0023749
0.00245369
0.00251079
0.00254846
0.00256475
0.00255316
0.00855377
0.00370585
0.00296904
0.00272257
0.00258098
0.00246695
0.00237139
0.00229069
0.00221959
0.00215465
0.00209317
0.00203314
0.00197305
0.00191201
0.0018495
0.00178536
0.00171985
0.00165342
0.00158678
0.00152061
0.00145564
0.00139243
0.00133163
0.00127345
0.00121796
0.00116416
0.0011144
0.00106778
0.00102423
0.00098421
0.00094789
0.000915447
0.000887033
0.000863021
0.000843854
0.000830526
0.000824055
0.000826289
0.000840718
0.00086428
0.000890779
0.000932382
0.000976905
0.00102071
0.00105842
0.0010911
0.00111458
0.00113193
0.00114156
0.00113234
0.000435738
0.000315456
0.000271013
0.000249969
0.000237621
0.000228748
0.000221758
0.000216007
0.000211057
0.000206682
0.000202694
0.000198942
0.0001953
0.000191675
0.000188
0.000184225
0.000180326
0.000176297
0.000172149
0.000167905
0.000163594
0.000159248
0.000154895
0.000150588
0.00014629
0.000142105
0.000138048
0.000134131
0.000130342
0.000126692
0.000123199
0.000119879
0.000116754
0.000113843
0.000111181
0.000108802
0.000106778
0.000105161
0.000104083
0.000103796
0.000103897
0.000104761
0.000106358
0.000108433
0.000110834
0.000113208
0.00011558
0.000117449
0.00011925
0.000120111
)
;

boundaryField
{
    floor
    {
        type            nutkWallFunction;
        Cmu             0.09;
        kappa           0.41;
        E               9.8;
        value           nonuniform List<scalar> 
50
(
5.14101e-05
3.53526e-05
2.89876e-05
2.56641e-05
2.34305e-05
2.15616e-05
1.98454e-05
1.81817e-05
1.65145e-05
1.48048e-05
1.30528e-05
1.1179e-05
8.73683e-06
4.74277e-06
0
0
0
0
0
0
6.58802e-07
1.23047e-06
1.55618e-06
1.61964e-06
1.5311e-06
1.07732e-06
0
0
0
0
0
1.46962e-06
3.26567e-06
4.61581e-06
5.77643e-06
6.64712e-06
7.3465e-06
7.89995e-06
8.34315e-06
8.69814e-06
8.98494e-06
9.21772e-06
9.40464e-06
9.55618e-06
9.69407e-06
9.84711e-06
1.00334e-05
1.02515e-05
1.04888e-05
1.08667e-05
)
;
    }
    ceiling
    {
        type            nutkWallFunction;
        Cmu             0.09;
        kappa           0.41;
        E               9.8;
        value           nonuniform List<scalar> 
50
(
5.14097e-05
3.54551e-05
2.93706e-05
2.64444e-05
2.47122e-05
2.34598e-05
2.24686e-05
2.16499e-05
2.09428e-05
2.03161e-05
1.9743e-05
1.92024e-05
1.86763e-05
1.81514e-05
1.76176e-05
1.70679e-05
1.64984e-05
1.59081e-05
1.52985e-05
1.46726e-05
1.40344e-05
1.33887e-05
1.27394e-05
1.20945e-05
1.14482e-05
1.08163e-05
1.02011e-05
9.60477e-06
9.02552e-06
8.46531e-06
7.92699e-06
7.4134e-06
6.92807e-06
6.47462e-06
6.05885e-06
5.68632e-06
5.36942e-06
5.11581e-06
4.94994e-06
4.90734e-06
4.9258e-06
5.06807e-06
5.32305e-06
5.65135e-06
6.02858e-06
6.39928e-06
6.76774e-06
7.05599e-06
7.33338e-06
7.46189e-06
)
;
    }
    inlet
    {
        type            calculated;
        value           uniform 0.09;
    }
    outlet
    {
        type            calculated;
        value           nonuniform List<scalar> 
40
(
0.00014254
0.00151179
0.00320203
0.00479077
0.00623526
0.00753712
0.00870556
0.00975051
0.0106811
0.0115051
0.0122292
0.012859
0.0133993
0.013854
0.0142265
0.0145196
0.0147357
0.0148759
0.0149427
0.014938
0.0148632
0.0147194
0.0145076
0.0142282
0.0138817
0.0134682
0.0129874
0.0124385
0.0118203
0.0111308
0.0103672
0.00952586
0.00860174
0.00758916
0.00648167
0.00527216
0.00395827
0.00255316
0.00113234
0.000120111
)
;
    }
    fixedWalls
    {
        type            empty;
    }
    baffleFacesThermoBaffle1D_master
    {
        type            nutkWallFunction;
        Cmu             0.09;
        kappa           0.41;
        E               9.8;
        value           nonuniform List<scalar> 
16
(
0
0
1.21922e-06
3.41156e-06
5.04053e-06
6.3189e-06
7.37886e-06
8.27948e-06
9.05237e-06
9.7226e-06
1.03036e-05
1.08457e-05
1.1303e-05
1.18981e-05
1.24828e-05
2.17947e-05
)
;
    }
    baffleFacesThermoBaffle1D_slave
    {
        type            nutkWallFunction;
        Cmu             0.09;
        kappa           0.41;
        E               9.8;
        value           nonuniform List<scalar> 
16
(
3.99351e-06
1.34742e-05
1.91972e-05
2.33607e-05
2.67394e-05
2.94452e-05
3.16988e-05
3.36569e-05
3.54024e-05
3.69865e-05
3.84625e-05
3.98954e-05
4.13519e-05
4.29299e-05
4.47557e-05
4.70281e-05
)
;
    }
    baffleFacesThermoBaffle3D_master
    {
        type            nutkWallFunction;
        Cmu             0.09;
        kappa           0.41;
        E               9.8;
        value           nonuniform List<scalar> 
16
(
0
1.37503e-07
3.93525e-06
6.57859e-06
8.40794e-06
9.73561e-06
1.06973e-05
1.13528e-05
1.17325e-05
1.17324e-05
1.16861e-05
1.12702e-05
1.06197e-05
9.48322e-06
1.0063e-05
2.24247e-05
)
;
    }
    baffleFacesThermoBaffle3D_slave
    {
        type            nutkWallFunction;
        Cmu             0.09;
        kappa           0.41;
        E               9.8;
        value           nonuniform List<scalar> 
16
(
0
0
1.37719e-06
2.83597e-06
3.70674e-06
4.17441e-06
4.562e-06
4.88164e-06
5.23524e-06
6.11997e-06
8.33426e-06
1.19695e-05
1.58821e-05
1.965e-05
2.40528e-05
3.09361e-05
)
;
    }
}


// ************************************************************************* //
