/*--------------------------------*- C++ -*----------------------------------*\
| =========                 |                                                 |
| \\      /  F ield         | OpenFOAM: The Open Source CFD Toolbox           |
|  \\    /   O peration     | Version:  v1906                                 |
|   \\  /    A nd           | Web:      www.OpenFOAM.com                      |
|    \\/     M anipulation  |                                                 |
\*---------------------------------------------------------------------------*/
FoamFile
{
    version     2.0;
    format      ascii;
    class       surfaceScalarField;
    location    "1500";
    object      phi;
}
// * * * * * * * * * * * * * * * * * * * * * * * * * * * * * * * * * * * * * //

dimensions      [1 0 -1 0 0 0 0];
oriented        oriented;


internalField   nonuniform List<scalar> 
3878
(
0.000196918
-4.98662e-05
0.000183948
1.29692e-05
0.000158699
2.52488e-05
0.000137185
2.15135e-05
0.000118485
1.86994e-05
9.94704e-05
1.90137e-05
7.86333e-05
2.08366e-05
5.56931e-05
2.29398e-05
3.10291e-05
2.46637e-05
5.95849e-06
2.50705e-05
-1.67967e-05
2.27551e-05
-3.30827e-05
1.62858e-05
-3.69844e-05
3.90127e-06
-2.19002e-05
-1.50849e-05
-2.19011e-05
-2.43226e-05
2.43204e-05
-4.42372e-05
1.99129e-05
-6.35673e-05
1.9329e-05
-7.34624e-05
9.89445e-06
-7.54356e-05
1.97241e-06
-6.5651e-05
-9.78521e-06
-4.69659e-05
-1.86857e-05
-2.12897e-05
-2.56767e-05
9.21669e-06
-3.0507e-05
4.24887e-05
-3.32725e-05
7.34309e-05
-3.09429e-05
8.54939e-05
-1.20639e-05
6.95598e-05
1.59329e-05
6.95586e-05
-5.47497e-05
5.47467e-05
-9.2144e-05
3.7393e-05
-0.000117493
2.53478e-05
-0.000128641
1.11472e-05
-0.000131486
2.84507e-06
-0.000125977
-5.51017e-06
-0.000115931
-1.00457e-05
-0.000103566
-1.2366e-05
-8.99304e-05
-1.36355e-05
-7.59542e-05
-1.39764e-05
-6.21131e-05
-1.38413e-05
-4.87264e-05
-1.33868e-05
-3.58743e-05
-1.28523e-05
-2.37301e-05
-1.21443e-05
-1.23643e-05
-1.13659e-05
-1.32514e-06
-1.10392e-05
9.90661e-06
-1.12318e-05
2.19542e-05
-1.20476e-05
3.61657e-05
-1.42115e-05
5.52298e-05
-1.90641e-05
-2.73431e-05
0.000113148
-1.59631e-05
0.000124413
1.70378e-06
0.000133594
1.60679e-05
0.000131759
2.33479e-05
0.000122707
2.77519e-05
0.000109383
3.23377e-05
9.31666e-05
3.70524e-05
7.45378e-05
4.15685e-05
5.41278e-05
4.50737e-05
3.2918e-05
4.62803e-05
1.23898e-05
4.32833e-05
-5.17247e-06
3.3848e-05
-1.70856e-05
1.58143e-05
-2.04381e-05
-1.17326e-05
-4.23394e-05
-2.37355e-05
4.80545e-05
-4.60115e-05
4.21879e-05
-6.17772e-05
3.5094e-05
-7.03901e-05
1.8507e-05
-7.1334e-05
2.91597e-06
-6.48226e-05
-1.62969e-05
-5.13033e-05
-3.22052e-05
-3.13354e-05
-4.56448e-05
-6.37869e-06
-5.54639e-05
1.9408e-05
-5.90595e-05
4.19028e-05
-5.3438e-05
5.71349e-05
-2.72965e-05
4.9883e-05
2.31841e-05
0.000119441
-4.77484e-05
0.000102494
-7.96732e-05
6.93172e-05
-9.73982e-05
4.30723e-05
-0.00010518
1.89282e-05
-0.000104916
2.58104e-06
-9.9581e-05
-1.08451e-05
-9.05971e-05
-1.90297e-05
-7.94503e-05
-2.35129e-05
-6.72217e-05
-2.58643e-05
-5.45845e-05
-2.66137e-05
-4.20274e-05
-2.63984e-05
-2.98166e-05
-2.55977e-05
-1.82298e-05
-2.44392e-05
-7.23071e-06
-2.31434e-05
3.4343e-06
-2.20309e-05
1.38076e-05
-2.14126e-05
2.40063e-05
-2.14304e-05
3.4472e-05
-2.25133e-05
4.53856e-05
-2.51251e-05
5.69164e-05
-3.05949e-05
-3.71007e-05
0.000137141
-6.05326e-06
0.000134172
4.67337e-06
0.000135517
1.47222e-05
0.000132697
2.61677e-05
0.000125522
3.49269e-05
0.000114902
4.29576e-05
0.000101533
5.04215e-05
8.59083e-05
5.71934e-05
6.8577e-05
6.2405e-05
5.02328e-05
6.46245e-05
3.17391e-05
6.17769e-05
1.44438e-05
5.11434e-05
-1.00675e-07
3.03587e-05
-8.63221e-06
-3.20106e-06
-5.09715e-05
-2.53946e-05
7.34474e-05
-4.55024e-05
6.22948e-05
-5.89984e-05
4.85892e-05
-6.6939e-05
2.64471e-05
-6.83e-05
4.27668e-06
-6.40409e-05
-2.05563e-05
-5.44433e-05
-4.18031e-05
-3.95545e-05
-6.05337e-05
-2.07384e-05
-7.42802e-05
2.7038e-07
-8.00684e-05
1.95146e-05
-7.26824e-05
3.37292e-05
-4.15115e-05
3.32523e-05
2.36605e-05
0.000152693
-4.4928e-05
0.000147421
-6.82933e-05
9.26822e-05
-8.04881e-05
5.52669e-05
-8.51628e-05
2.36028e-05
-8.36136e-05
1.03176e-06
-7.82089e-05
-1.62499e-05
-7.00077e-05
-2.7231e-05
-5.99824e-05
-3.35383e-05
-4.90249e-05
-3.68218e-05
-3.7666e-05
-3.79727e-05
-2.64016e-05
-3.76628e-05
-1.5522e-05
-3.64772e-05
-5.0332e-06
-3.49281e-05
5.10881e-06
-3.32854e-05
1.48447e-05
-3.17668e-05
2.41954e-05
-3.07633e-05
3.32431e-05
-3.04782e-05
4.20738e-05
-3.13439e-05
5.05958e-05
-3.36472e-05
5.80614e-05
-3.80604e-05
-4.24595e-05
0.000142897
-1.89974e-06
0.000140349
7.22206e-06
0.000137928
1.71431e-05
0.000134321
2.97745e-05
0.000128112
4.11356e-05
0.000119244
5.18254e-05
0.000107965
6.17008e-05
9.46207e-05
7.05376e-05
7.96269e-05
7.73988e-05
6.34701e-05
8.07813e-05
4.67078e-05
7.85393e-05
2.99902e-05
6.7861e-05
1.42799e-05
4.6069e-05
1.86334e-06
9.21559e-06
-4.91079e-05
-2.59665e-05
9.94119e-05
-4.45894e-05
8.09164e-05
-5.65925e-05
6.05916e-05
-6.40831e-05
3.39371e-05
-6.63109e-05
6.50408e-06
-6.41892e-05
-2.26782e-05
-5.77288e-05
-4.82636e-05
-4.71376e-05
-7.11251e-05
-3.33104e-05
-8.81075e-05
-1.70215e-05
-9.63574e-05
8.26591e-08
-8.97867e-05
1.51485e-05
-5.65775e-05
2.08227e-05
1.79859e-05
0.000173515
-3.93847e-05
0.000186806
-5.77897e-05
0.000111087
-6.59652e-05
6.34423e-05
-6.79767e-05
2.56142e-05
-6.51832e-05
-1.76185e-06
-5.9557e-05
-2.18761e-05
-5.18177e-05
-3.49703e-05
-4.26847e-05
-4.26715e-05
-3.2825e-05
-4.66815e-05
-2.27836e-05
-4.80142e-05
-1.27833e-05
-4.76631e-05
-2.88401e-06
-4.63766e-05
6.70738e-06
-4.45195e-05
1.58882e-05
-4.24663e-05
2.46671e-05
-4.05457e-05
3.30161e-05
-3.91123e-05
4.09445e-05
-3.84066e-05
4.8391e-05
-3.87904e-05
5.51434e-05
-4.03996e-05
6.05661e-05
-4.34832e-05
-4.62583e-05
0.000144787
3.63808e-07
0.000142664
9.34493e-06
0.000139766
2.00415e-05
0.000136029
3.35108e-05
0.00013053
4.66348e-05
0.000122959
5.93965e-05
0.000113326
7.13332e-05
0.000101819
8.20453e-05
8.87013e-05
9.05163e-05
7.42678e-05
9.52149e-05
5.8816e-05
9.39911e-05
4.26276e-05
8.40494e-05
2.61319e-05
6.25649e-05
1.07998e-05
2.45479e-05
-3.83075e-05
-2.57417e-05
0.000125151
-4.34517e-05
9.86249e-05
-5.46407e-05
7.17796e-05
-6.12846e-05
4.05804e-05
-6.4462e-05
9.68095e-06
-6.41295e-05
-2.3011e-05
-6.02934e-05
-5.20999e-05
-5.36706e-05
-7.7748e-05
-4.42146e-05
-9.75636e-05
-3.21343e-05
-0.000108438
-1.78748e-05
-0.000104046
-2.83439e-06
-7.16181e-05
7.7011e-06
7.45016e-06
0.000181216
-3.29071e-05
0.000219713
-4.72981e-05
0.000125478
-5.21598e-05
6.8304e-05
-5.18929e-05
2.53472e-05
-4.81044e-05
-5.55032e-06
-4.21964e-05
-2.77842e-05
-3.47557e-05
-4.24111e-05
-2.6394e-05
-5.10332e-05
-1.76565e-05
-5.54189e-05
-8.68778e-06
-5.69829e-05
3.75294e-07
-5.67262e-05
9.23721e-06
-5.52385e-05
1.78013e-05
-5.30836e-05
2.60123e-05
-5.06773e-05
3.38284e-05
-4.83618e-05
4.12017e-05
-4.64856e-05
4.8086e-05
-4.52909e-05
5.4363e-05
-4.50674e-05
5.98193e-05
-4.58558e-05
6.4042e-05
-4.77059e-05
-4.92483e-05
0.000145608
1.80578e-06
0.000143757
1.11967e-05
0.000141004
2.27946e-05
0.000137502
3.70119e-05
0.000132649
5.14878e-05
0.000126143
6.59024e-05
0.000117878
7.95987e-05
0.000107901
9.20221e-05
9.63323e-05
0.000102085
8.32829e-05
0.000108264
6.88183e-05
0.000108456
5.29274e-05
9.99404e-05
3.56602e-05
7.98322e-05
1.74954e-05
4.2713e-05
-2.08113e-05
-2.49851e-05
0.000150133
-4.17138e-05
0.000115352
-5.24137e-05
8.24783e-05
-5.85391e-05
4.6705e-05
-6.19846e-05
1.31259e-05
-6.29451e-05
-2.20508e-05
-6.15468e-05
-5.34986e-05
-5.82694e-05
-8.10255e-05
-5.28022e-05
-0.000103031
-4.48022e-05
-0.000116438
-3.33948e-05
-0.000115454
-1.85686e-05
-8.64444e-05
-2.78831e-06
-8.33029e-06
0.000178428
-2.65269e-05
0.000246239
-3.68109e-05
0.000135762
-3.86863e-05
7.01795e-05
-3.64382e-05
2.3099e-05
-3.17016e-05
-1.02869e-05
-2.55183e-05
-3.39675e-05
-1.85272e-05
-4.94022e-05
-1.09803e-05
-5.85801e-05
-3.01342e-06
-6.33859e-05
5.09839e-06
-6.50948e-05
1.31226e-05
-6.47504e-05
2.09592e-05
-6.30752e-05
2.8529e-05
-6.06533e-05
3.57746e-05
-5.79229e-05
4.26475e-05
-5.52347e-05
4.90834e-05
-5.29215e-05
5.50081e-05
-5.12156e-05
6.02921e-05
-5.03514e-05
6.47595e-05
-5.03232e-05
6.81748e-05
-5.11213e-05
-5.17271e-05
0.00014601
2.84572e-06
0.000144346
1.28612e-05
0.000141853
2.52876e-05
0.000138693
4.01714e-05
0.000134456
5.57253e-05
0.000128871
7.14873e-05
0.000121772
8.66974e-05
0.000113099
0.000100695
0.000102836
0.000112348
9.09202e-05
0.00012018
7.72047e-05
0.000122171
6.14237e-05
0.000115722
4.33175e-05
9.79387e-05
2.27185e-05
6.33124e-05
1.90826e-06
-2.39608e-05
0.00017409
-3.95538e-05
0.000130942
-4.92868e-05
9.22099e-05
-5.50221e-05
5.24393e-05
-5.82776e-05
1.63808e-05
-6.00577e-05
-2.02713e-05
-6.05148e-05
-5.30417e-05
-5.99804e-05
-8.15601e-05
-5.82593e-05
-0.000104752
-5.42969e-05
-0.0001204
-4.63581e-05
-0.000123393
-3.24045e-05
-0.000100398
-1.22119e-05
-2.85229e-05
0.000166216
-1.97276e-05
0.000265967
-2.60864e-05
0.000142121
-2.52133e-05
6.93064e-05
-2.1255e-05
1.91407e-05
-1.57069e-05
-1.58349e-05
-9.38633e-06
-4.0288e-05
-2.61961e-06
-5.61689e-05
4.4036e-06
-6.56033e-05
1.1505e-05
-7.04873e-05
1.86001e-05
-7.21899e-05
2.55926e-05
-7.17428e-05
3.2415e-05
-6.98976e-05
3.90043e-05
-6.72426e-05
4.53051e-05
-6.42237e-05
5.1264e-05
-6.11936e-05
5.68094e-05
-5.8467e-05
6.18573e-05
-5.62635e-05
6.62878e-05
-5.47819e-05
6.99687e-05
-5.40041e-05
7.27832e-05
-5.39357e-05
-5.38248e-05
0.000146231
3.66479e-06
0.000144715
1.43776e-05
0.000142481
2.75215e-05
0.000139675
4.29775e-05
0.000136006
5.93937e-05
0.000131229
7.62641e-05
0.000125143
9.27833e-05
0.0001176
0.000108238
0.000108466
0.000121483
9.75118e-05
0.000131134
8.43941e-05
0.000135289
6.86132e-05
0.000131503
4.96425e-05
0.00011691
2.68819e-05
8.60736e-05
2.87915e-05
-2.26543e-05
0.000196739
-3.67083e-05
0.000144994
-4.5107e-05
0.000100607
-4.99996e-05
5.73308e-05
-5.27087e-05
1.90892e-05
-5.48239e-05
-1.81565e-05
-5.65929e-05
-5.1273e-05
-5.83172e-05
-7.98359e-05
-5.97174e-05
-0.000103352
-5.97483e-05
-0.000120369
-5.6186e-05
-0.000126955
-4.47993e-05
-0.000111785
-2.31028e-05
-5.02192e-05
0.000143113
-1.31774e-05
0.000279145
-1.49042e-05
0.000143848
-1.15075e-05
6.59098e-05
-5.89761e-06
1.35309e-05
4.45244e-07
-2.21778e-05
6.91238e-06
-4.67551e-05
1.32884e-05
-6.25449e-05
1.95712e-05
-7.18861e-05
2.57588e-05
-7.66748e-05
3.18531e-05
-7.82843e-05
3.7829e-05
-7.77187e-05
4.36537e-05
-7.57224e-05
4.92822e-05
-7.28711e-05
5.46644e-05
-6.96059e-05
5.97449e-05
-6.62741e-05
6.44509e-05
-6.3173e-05
6.86986e-05
-6.05112e-05
7.2385e-05
-5.84683e-05
7.54156e-05
-5.70347e-05
7.77455e-05
-5.62657e-05
-5.56032e-05
0.000146369
4.3458e-06
0.000144987
1.57592e-05
0.000142995
2.95136e-05
0.000140527
4.5446e-05
0.000137377
6.25429e-05
0.000133313
8.03284e-05
0.000128119
9.79778e-05
0.000121576
0.000114781
0.000113453
0.000129607
0.000103359
0.000141228
9.0769e-05
0.000147879
7.49516e-05
0.00014732
5.51092e-05
0.000136752
3.03255e-05
0.000110858
5.91185e-05
-2.08592e-05
0.000217594
-3.28554e-05
0.000156987
-3.93983e-05
0.000107148
-4.29701e-05
6.09015e-05
-4.46999e-05
2.08183e-05
-4.66946e-05
-1.61624e-05
-4.92095e-05
-4.87584e-05
-5.25683e-05
-7.64773e-05
-5.66021e-05
-9.93182e-05
-6.03158e-05
-0.000116656
-6.14553e-05
-0.000125815
-5.4493e-05
-0.000118747
-3.25496e-05
-7.21622e-05
0.000110565
-5.40757e-06
0.000284553
-3.80117e-06
0.000142242
2.73962e-06
5.93691e-05
9.97221e-06
6.29838e-06
1.6868e-05
-2.90735e-05
2.32391e-05
-5.31262e-05
2.90777e-05
-6.83835e-05
3.45513e-05
-7.73596e-05
3.97901e-05
-8.19136e-05
4.48788e-05
-8.3373e-05
4.98477e-05
-8.26876e-05
5.4693e-05
-8.05677e-05
5.93851e-05
-7.75632e-05
6.38797e-05
-7.41005e-05
6.81215e-05
-7.05159e-05
7.204e-05
-6.70915e-05
7.55562e-05
-6.40274e-05
7.85845e-05
-6.14966e-05
8.10589e-05
-5.9509e-05
8.29741e-05
-5.81809e-05
-5.70936e-05
0.000146468
4.92785e-06
0.00014522
1.70069e-05
0.000143456
3.12772e-05
0.000141325
4.75776e-05
0.000138634
6.52331e-05
0.000135205
8.37582e-05
0.000130806
0.000102377
0.000125197
0.00012039
0.000118008
0.000136795
0.000108741
0.000150495
9.66962e-05
0.000159924
8.09001e-05
0.000163117
6.02531e-05
0.000157399
3.3504e-05
0.000137608
9.26244e-05
-1.85406e-05
0.00023613
-2.76474e-05
0.000166091
-3.16114e-05
0.000111111
-3.33626e-05
6.26516e-05
-3.38483e-05
2.13034e-05
-3.52601e-05
-1.47511e-05
-3.80192e-05
-4.59996e-05
-4.23995e-05
-7.20971e-05
-4.83266e-05
-9.33912e-05
-5.52038e-05
-0.000109778
-6.0989e-05
-0.00012003
-6.06858e-05
-0.00011905
-4.30403e-05
-8.9807e-05
6.75258e-05
2.10309e-06
0.00028245
8.83742e-06
0.000135508
1.80396e-05
5.01671e-05
2.64502e-05
-2.11207e-06
3.364e-05
-3.62633e-05
3.96799e-05
-5.91661e-05
4.48031e-05
-7.35067e-05
4.93633e-05
-8.19198e-05
5.36031e-05
-8.61533e-05
5.7674e-05
-8.74439e-05
6.1645e-05
-8.66587e-05
6.55323e-05
-8.4455e-05
6.93171e-05
-8.1348e-05
7.29595e-05
-7.77429e-05
7.64053e-05
-7.39617e-05
7.95872e-05
-7.02735e-05
8.24331e-05
-6.68733e-05
8.48718e-05
-6.39354e-05
8.6857e-05
-6.14942e-05
8.84025e-05
-5.97265e-05
-5.83141e-05
0.000146548
5.42944e-06
0.000145441
1.8114e-05
0.000143916
3.28017e-05
0.000142097
4.93971e-05
0.000139828
6.75015e-05
0.000136988
8.65985e-05
0.000133336
0.000106028
0.000128581
0.000125145
0.000122298
0.000143079
0.000113904
0.000158889
0.000102527
0.000171301
8.6926e-05
0.000178718
6.5655e-05
0.000178671
3.69353e-05
0.000166328
0.000129562
-1.5286e-05
0.000251411
-2.09985e-05
0.000171801
-2.16688e-05
0.00011178
-2.06988e-05
6.16807e-05
-1.97483e-05
2.03522e-05
-2.03128e-05
-1.4187e-05
-2.29461e-05
-4.33666e-05
-2.78154e-05
-6.72279e-05
-3.48587e-05
-8.63478e-05
-4.38045e-05
-0.000100833
-5.3413e-05
-0.000110421
-6.03798e-05
-0.000112082
-5.46567e-05
-9.55294e-05
1.28709e-05
1.03556e-05
0.000272095
2.25153e-05
0.000123348
3.44025e-05
3.82801e-05
4.37007e-05
-1.14102e-05
5.08735e-05
-4.3436e-05
5.62649e-05
-6.45574e-05
6.0456e-05
-7.76978e-05
6.39846e-05
-8.54483e-05
6.71737e-05
-8.93424e-05
7.02169e-05
-9.04871e-05
7.3204e-05
-8.96458e-05
7.61601e-05
-8.74111e-05
7.90717e-05
-8.42597e-05
8.19011e-05
-8.05723e-05
8.45953e-05
-7.66559e-05
8.70903e-05
-7.27685e-05
8.93202e-05
-6.91031e-05
9.12252e-05
-6.58404e-05
9.27712e-05
-6.30402e-05
9.39782e-05
-6.09334e-05
-5.9276e-05
0.000146621
5.85786e-06
0.000145665
1.90693e-05
0.000144389
3.40778e-05
0.000142855
5.09315e-05
0.000141008
6.93482e-05
0.000138726
8.8881e-05
0.000135778
0.000108976
0.000131857
0.000129066
0.000126502
0.000148434
0.000119075
0.000166316
0.000108572
0.000181803
9.35021e-05
0.000193788
7.1908e-05
0.000200265
4.12344e-05
0.000197003
0.000170798
-1.08196e-05
0.000262227
-1.11262e-05
0.000172106
-7.96604e-06
0.000108619
-4.33129e-06
5.80453e-05
-2.05008e-06
1.80705e-05
-2.10731e-06
-1.413e-05
-4.53407e-06
-4.094e-05
-9.31796e-06
-6.2444e-05
-1.65819e-05
-7.90838e-05
-2.62738e-05
-9.11405e-05
-3.79081e-05
-9.87869e-05
-4.93017e-05
-0.000100688
-5.29597e-05
-9.18705e-05
-4.00871e-05
2.05591e-05
0.000251536
3.86484e-05
0.000105259
5.25503e-05
2.43786e-05
6.19756e-05
-2.08352e-05
6.85975e-05
-5.00578e-05
7.29256e-05
-6.88854e-05
7.59614e-05
-8.07335e-05
7.83514e-05
-8.78383e-05
8.04526e-05
-9.14436e-05
8.24707e-05
-9.25051e-05
8.44975e-05
-9.16726e-05
8.6557e-05
-8.94706e-05
8.86356e-05
-8.63383e-05
9.06954e-05
-8.2632e-05
9.26838e-05
-7.86443e-05
9.45399e-05
-7.46246e-05
9.62028e-05
-7.07661e-05
9.76208e-05
-6.72584e-05
9.87664e-05
-6.41858e-05
9.96581e-05
-6.18251e-05
-5.99881e-05
0.000146696
6.21096e-06
0.000145904
1.98616e-05
0.000144862
3.51189e-05
0.000143629
5.21652e-05
0.000142197
7.07805e-05
0.000140454
9.06239e-05
0.00013819
0.00011124
0.000135106
0.00013215
0.000130748
0.000152792
0.000124432
0.000172632
0.000115149
0.000191087
0.000101179
0.000207758
8.00541e-05
0.000221391
4.77572e-05
0.000229301
0.000218558
-4.29973e-06
0.000266523
1.63514e-06
0.000166171
1.01766e-05
0.000100077
1.62499e-05
5.19717e-05
1.94787e-05
1.48415e-05
1.97507e-05
-1.44022e-05
1.71408e-05
-3.83303e-05
1.20434e-05
-5.73467e-05
4.76842e-06
-7.18087e-05
-4.32523e-06
-8.20467e-05
-1.5295e-05
-8.78168e-05
-2.72185e-05
-8.87645e-05
-3.47135e-05
-8.43748e-05
-7.47988e-05
3.3144e-05
0.000218393
5.76568e-05
8.07472e-05
7.21879e-05
9.84773e-06
8.12317e-05
-2.98789e-05
8.65709e-05
-5.53969e-05
8.94686e-05
-7.1783e-05
9.11731e-05
-8.24379e-05
9.23615e-05
-8.90267e-05
9.337e-05
-9.2452e-05
9.43872e-05
-9.35223e-05
9.54925e-05
-9.27779e-05
9.66998e-05
-9.06778e-05
9.7992e-05
-8.76304e-05
9.93292e-05
-8.39693e-05
0.000100659
-7.99741e-05
0.000101923
-7.58883e-05
0.000103064
-7.19069e-05
0.000104035
-6.82295e-05
0.000104812
-6.49627e-05
0.000105407
-6.24205e-05
-6.0458e-05
0.000146772
6.4881e-06
0.000146152
2.04813e-05
0.00014534
3.59308e-05
0.000144426
5.30796e-05
0.000143406
7.17999e-05
0.000142193
9.18367e-05
0.000140608
0.000112826
0.000138382
0.000134376
0.000135101
0.000156072
0.000130129
0.000177604
0.000122445
0.000198772
0.00011032
0.000219883
9.05776e-05
0.000241134
5.61128e-05
0.000263767
0.000274672
4.84018e-06
0.000261682
2.14781e-05
0.000149532
3.41885e-05
8.73665e-05
4.14776e-05
4.46825e-05
4.48721e-05
1.14469e-05
4.48252e-05
-1.43553e-05
4.19366e-05
-3.54417e-05
3.68003e-05
-5.22104e-05
2.97692e-05
-6.47775e-05
2.09653e-05
-7.32426e-05
1.0628e-05
-7.74792e-05
-4.45909e-07
-7.76902e-05
-1.01837e-05
-7.46362e-05
-8.49808e-05
4.6514e-05
0.000171881
7.7612e-05
4.965e-05
9.31517e-05
-5.69165e-06
0.000100962
-3.76885e-05
0.000104377
-5.88126e-05
0.000105595
-7.3e-05
0.000105889
-8.27322e-05
0.000105885
-8.90232e-05
0.000105843
-9.24094e-05
0.000105914
-9.35938e-05
0.000106152
-9.30159e-05
0.000106563
-9.10887e-05
0.000107123
-8.81899e-05
0.000107789
-8.4635e-05
0.000108508
-8.06935e-05
0.000109225
-7.66049e-05
0.000109885
-7.25669e-05
0.000110444
-6.87893e-05
0.00011088
-6.5398e-05
0.000111195
-6.27359e-05
-6.06934e-05
0.000146844
6.6925e-06
0.000146399
2.09261e-05
0.000145834
3.64965e-05
0.000145243
5.36698e-05
0.000144637
7.24063e-05
0.000143951
9.25232e-05
0.000143045
0.000113731
0.000141703
0.000135718
0.000139588
0.000158187
0.000136186
0.000181007
0.000130669
0.000204288
0.000121521
0.000229031
0.000105912
0.000256744
7.3935e-05
0.000295744
0.000348609
2.68813e-05
0.000234802
5.21882e-05
0.000124226
6.55802e-05
7.39751e-05
7.21859e-05
3.80772e-05
7.38205e-05
9.81248e-06
7.23496e-05
-1.28844e-05
6.85692e-05
-3.16612e-05
6.31365e-05
-4.67775e-05
5.64829e-05
-5.81237e-05
4.88397e-05
-6.55993e-05
4.03242e-05
-6.89635e-05
3.06601e-05
-6.80257e-05
1.74897e-05
-6.14651e-05
-6.74898e-05
6.77208e-05
0.000104162
0.000102715
1.46561e-05
0.00011574
-1.87162e-05
0.000120324
-4.2272e-05
0.000121396
-5.98845e-05
0.000120914
-7.2518e-05
0.000119876
-8.1694e-05
0.000118775
-8.79221e-05
0.000117789
-9.1423e-05
0.000116997
-9.28025e-05
0.000116444
-9.24621e-05
0.000116125
-9.07699e-05
0.000116012
-8.80766e-05
0.00011606
-8.46831e-05
0.000116218
-8.08515e-05
0.000116431
-7.68185e-05
0.000116649
-7.2785e-05
0.00011683
-6.89697e-05
0.000116947
-6.55154e-05
0.000116997
-6.27862e-05
-6.07018e-05
0.000146916
6.82479e-06
0.000146645
2.11971e-05
0.000146337
3.68045e-05
0.000146075
5.39314e-05
0.000145881
7.26008e-05
0.000145717
9.26871e-05
0.000145489
0.000113959
0.000145046
0.000136162
0.000144156
0.000159076
0.000142479
0.000182685
0.000139476
0.000207291
0.000134101
0.000234407
0.000124048
0.000266798
9.31632e-05
0.00032663
0.000441774
7.02617e-05
0.000164542
9.57701e-05
9.87191e-05
0.00010564
6.41062e-05
0.000107337
3.63806e-05
0.000105254
1.18954e-05
0.000101218
-8.84758e-06
9.59679e-05
-2.64113e-05
8.99362e-05
-4.07458e-05
8.34909e-05
-5.16783e-05
7.69244e-05
-5.90326e-05
7.04796e-05
-6.25185e-05
6.39278e-05
-6.14735e-05
5.39133e-05
-5.145e-05
-1.35757e-05
0.000105041
-8.78065e-07
0.000129151
-9.45329e-06
0.000136249
-2.58141e-05
0.000137565
-4.35873e-05
0.000136796
-5.91154e-05
0.000134965
-7.06876e-05
0.000132932
-7.96608e-05
0.000130921
-8.59112e-05
0.000129126
-8.96273e-05
0.00012759
-9.12664e-05
0.000126338
-9.12105e-05
0.000125366
-8.9798e-05
0.000124645
-8.73551e-05
0.000124131
-8.41697e-05
0.000123777
-8.04972e-05
0.00012353
-7.65718e-05
0.000123343
-7.25975e-05
0.000123173
-6.88002e-05
0.000122995
-6.53367e-05
0.000122794
-6.25854e-05
-6.04912e-05
0.000146987
6.88599e-06
0.000146892
2.12924e-05
0.000146842
3.68538e-05
0.00014691
5.38639e-05
0.000147124
7.2387e-05
0.000147474
9.23365e-05
0.000147914
0.000113519
0.000148365
0.000135711
0.000148718
0.000158723
0.000148862
0.000182542
0.000148714
0.000207439
0.000148504
0.000234617
0.000149246
0.000266056
0.000163944
0.000311932
0.000233419
0.0003723
0.000188652
0.000209311
0.000165442
0.000121931
0.000153161
7.63881e-05
0.000144685
4.48574e-05
0.000137138
1.94424e-05
0.000129968
-1.67709e-06
0.000122961
-1.94039e-05
0.000116132
-3.39165e-05
0.000109661
-4.52076e-05
0.000103828
-5.31993e-05
9.90481e-05
-5.77386e-05
9.57417e-05
-5.81668e-05
9.61864e-05
-5.18944e-05
0.00011362
-3.10091e-05
0.000133102
-2.0359e-05
0.000145293
-2.16442e-05
0.000150432
-3.09533e-05
0.000151205
-4.43599e-05
0.000149934
-5.78437e-05
0.000147517
-6.82709e-05
0.000144873
-7.70169e-05
0.000142246
-8.32837e-05
0.000139817
-8.71988e-05
0.000137666
-8.91151e-05
0.000135819
-8.93633e-05
0.000134276
-8.82552e-05
0.000133014
-8.60932e-05
0.000131996
-8.31518e-05
0.000131178
-7.96788e-05
0.000130512
-7.59059e-05
0.000129953
-7.20385e-05
0.000129461
-6.8308e-05
0.000129006
-6.48818e-05
0.000128567
-6.21467e-05
-6.00699e-05
0.000147057
6.87739e-06
0.000147135
2.12136e-05
0.000147342
3.66475e-05
0.000147733
5.34721e-05
0.000148347
7.17737e-05
0.000149197
9.14866e-05
0.00015028
0.000112436
0.000151587
0.000134404
0.00015312
0.000157189
0.000154954
0.000180708
0.000157327
0.000205066
0.000161124
0.000230821
0.000168408
0.000258773
0.000190658
0.000289683
0.000244756
0.000318203
0.000235014
0.000219054
0.000210139
0.000146807
0.00019136
9.51681e-05
0.00017745
5.87676e-05
0.000166293
3.06002e-05
0.000156789
7.82755e-06
0.000148359
-1.09745e-05
0.000140791
-2.63477e-05
0.000134112
-3.85284e-05
0.000128505
-4.75929e-05
0.000124304
-5.35366e-05
0.000121952
-5.58152e-05
0.000123174
-5.31156e-05
0.000133413
-4.12484e-05
0.000146033
-3.29784e-05
0.000155553
-3.11638e-05
0.000160706
-3.61065e-05
0.000162046
-4.56995e-05
0.000160991
-5.67888e-05
0.000158618
-6.58972e-05
0.000155728
-7.4127e-05
0.00015273
-8.02863e-05
0.000149856
-8.43243e-05
0.000147224
-8.64828e-05
0.000144884
-8.7024e-05
0.000142853
-8.6224e-05
0.000141118
-8.43582e-05
0.000139651
-8.16852e-05
0.000138416
-7.84433e-05
0.00013737
-7.48597e-05
0.000136471
-7.114e-05
0.000135681
-6.7518e-05
0.000134969
-6.41691e-05
0.000134305
-6.14828e-05
-5.94465e-05
0.000147124
6.8011e-06
0.000147372
2.09653e-05
0.000147827
3.61929e-05
0.000148533
5.2766e-05
0.000149531
7.07758e-05
0.000150857
9.01608e-05
0.000152545
0.000110747
0.000154647
0.000132303
0.000157251
0.000154585
0.000160561
0.000177398
0.000165003
0.000200624
0.000171665
0.000224159
0.000182657
0.000247781
0.00020465
0.000267691
0.000243364
0.00027949
0.00024702
0.000215398
0.000233315
0.000160513
0.000217345
0.000111139
0.000203147
7.29655e-05
0.000190969
4.27793e-05
0.000180473
1.83238e-05
0.000171306
-1.80768e-06
0.000163284
-1.8325e-05
0.000156387
-3.16316e-05
0.00015072
-4.19262e-05
0.000146485
-4.93009e-05
0.000144007
-5.33371e-05
0.00014421
-5.33181e-05
0.000149815
-4.68537e-05
0.000157804
-4.09676e-05
0.000165005
-3.83639e-05
0.000169646
-4.07475e-05
0.000171304
-4.73574e-05
0.000170605
-5.60901e-05
0.000168485
-6.37772e-05
0.000165602
-7.12437e-05
0.000162432
-7.71163e-05
0.000159269
-8.11614e-05
0.000156279
-8.34923e-05
0.000153545
-8.42898e-05
0.000151104
-8.37828e-05
0.00014896
-8.22145e-05
0.000147098
-7.9823e-05
0.000145489
-7.68348e-05
0.000144099
-7.34699e-05
0.000142891
-6.99315e-05
0.000141826
-6.64533e-05
0.000140873
-6.32158e-05
0.000139996
-6.06059e-05
-5.86295e-05
0.000147188
6.66028e-06
0.000147599
2.05549e-05
0.00014829
3.55015e-05
0.000149295
5.17607e-05
0.000150657
6.94141e-05
0.000152428
8.83895e-05
0.000154675
0.0001085
0.000157492
0.000129486
0.00016103
0.000151048
0.000165562
0.000172867
0.000171584
0.000194602
0.000180115
0.000215629
0.000192863
0.000235033
0.000212579
0.000247975
0.000240844
0.000251226
0.000249233
0.00020701
0.000244362
0.000165384
0.000233731
0.00012177
0.000221965
8.47323e-05
0.000210732
5.40126e-05
0.000200508
2.85486e-05
0.00019136
7.33978e-06
0.000183285
-1.02498e-05
0.000176311
-2.46572e-05
0.000170515
-3.61302e-05
0.000166014
-4.47999e-05
0.00016303
-5.03533e-05
0.000162095
-5.23827e-05
0.00016466
-4.94184e-05
0.000169424
-4.57312e-05
0.000174474
-4.34144e-05
0.000178188
-4.44611e-05
0.000179767
-4.89366e-05
0.000179287
-5.56095e-05
0.000177433
-6.19231e-05
0.000174664
-6.84745e-05
0.000171447
-7.38995e-05
0.000168114
-7.78282e-05
0.000164867
-8.02454e-05
0.000161823
-8.12457e-05
0.000159042
-8.10025e-05
0.000156549
-7.97209e-05
0.00015434
-7.76146e-05
0.0001524
-7.48942e-05
0.0001507
-7.17699e-05
0.000149208
-6.84402e-05
0.00014789
-6.51352e-05
0.000146712
-6.20377e-05
0.000145634
-5.95277e-05
-5.76277e-05
0.000147248
6.4591e-06
0.000147811
1.99926e-05
0.000148724
3.45885e-05
0.000150008
5.0476e-05
0.000151708
6.77142e-05
0.000153889
8.62084e-05
0.000156641
0.000105749
0.000160087
0.00012604
0.000164412
0.000146723
0.000169911
0.000167368
0.000177062
0.000187452
0.00018667
0.000206021
0.000199772
0.000221931
0.000217315
0.000230433
0.000239276
0.000229266
0.000248834
0.000197453
0.000249483
0.000164736
0.000243777
0.000127477
0.00023529
9.32196e-05
0.000226049
6.32538e-05
0.00021697
3.7628e-05
0.000208468
1.58416e-05
0.000200741
-2.52235e-06
0.000193907
-1.78236e-05
0.000188065
-3.02882e-05
0.000183305
-4.00397e-05
0.000179796
-4.68445e-05
0.000177888
-5.04745e-05
0.000178451
-4.99809e-05
0.00018088
-4.81603e-05
0.000184065
-4.65994e-05
0.000186689
-4.70851e-05
0.000187889
-5.01362e-05
0.00018742
-5.51403e-05
0.000185739
-6.02422e-05
0.000183092
-6.58278e-05
0.000179889
-7.06962e-05
0.000176462
-7.4401e-05
0.000173035
-7.68183e-05
0.00016975
-7.7961e-05
0.000166691
-7.79436e-05
0.0001639
-7.69293e-05
0.000161389
-7.51036e-05
0.000159153
-7.2658e-05
0.000157173
-6.97901e-05
0.000155423
-6.66903e-05
0.00015387
-6.35827e-05
0.000152482
-6.06493e-05
0.000151213
-5.8259e-05
-5.64496e-05
0.000147303
6.20273e-06
0.000148005
1.9291e-05
0.000149121
3.34724e-05
0.000150662
4.89352e-05
0.000152671
6.57053e-05
0.000155223
8.36562e-05
0.000158423
0.000102549
0.000162413
0.00012205
0.000167387
0.000141749
0.000173628
0.000161127
0.000181544
0.000179536
0.000191641
0.000195924
0.00020462
0.000208953
0.000220484
0.000214569
0.000238322
0.000211429
0.000248101
0.000187674
0.000251992
0.000160846
0.000249992
0.000129478
0.000244669
9.85432e-05
0.000237759
7.01636e-05
0.000230284
4.51033e-05
0.000222845
2.32803e-05
0.000215789
4.53393e-06
0.000209325
-1.13591e-05
0.000203592
-2.45559e-05
0.000198695
-3.51419e-05
0.000194789
-4.29387e-05
0.000192126
-4.7812e-05
0.00019134
-4.91942e-05
0.000192081
-4.89015e-05
0.000193698
-4.82161e-05
0.000195236
-4.86228e-05
0.000195892
-5.07921e-05
0.00019525
-5.44982e-05
0.000193621
-5.86134e-05
0.000191051
-6.32582e-05
0.000187874
-6.75185e-05
0.000184394
-7.09209e-05
0.000180838
-7.32629e-05
0.000177366
-7.44884e-05
0.000174077
-7.46552e-05
0.000171031
-7.38835e-05
0.000168256
-7.2328e-05
0.000165756
-7.01584e-05
0.000163523
-6.75567e-05
0.000161536
-6.47032e-05
0.000159766
-6.18126e-05
0.00015818
-5.90636e-05
0.000156731
-5.68099e-05
-5.51035e-05
0.000147352
5.89723e-06
0.000148179
1.84647e-05
0.000149477
3.21746e-05
0.000151247
4.71644e-05
0.000153534
6.34188e-05
0.000156418
8.0772e-05
0.000160013
9.89539e-05
0.000164468
0.000117596
0.000169971
0.000136246
0.00017677
0.000154327
0.000185152
0.000171154
0.000195492
0.000185584
0.00020816
0.000196285
0.0002226
0.000200129
0.000237791
0.000196238
0.000247655
0.00017781
0.000253277
0.000155224
0.000253989
0.000128766
0.000251389
0.000101144
0.000246738
7.48142e-05
0.000241011
5.08305e-05
0.000234854
2.94374e-05
0.000228688
1.07001e-05
0.000222786
-5.45628e-06
0.00021733
-1.91006e-05
0.000212453
-3.02644e-05
0.00020832
-3.88056e-05
0.000205147
-4.46392e-05
0.000203397
-4.74443e-05
0.000202915
-4.8419e-05
0.000203283
-4.8584e-05
0.000203815
-4.91555e-05
0.000203848
-5.08247e-05
0.000202944
-5.35944e-05
0.000201226
-5.68955e-05
0.000198671
-6.0703e-05
0.000195504
-6.43509e-05
0.000191986
-6.7403e-05
0.000188333
-6.96104e-05
0.00018471
-7.08653e-05
0.00018123
-7.11753e-05
0.000177966
-7.06189e-05
0.000174957
-6.93194e-05
0.000172221
-6.74224e-05
0.000169757
-6.50926e-05
0.000167551
-6.24972e-05
0.000165578
-5.98394e-05
0.000163806
-5.72919e-05
0.000162186
-5.51895e-05
-5.35972e-05
0.000147394
5.54952e-06
0.000148329
1.753e-05
0.000149785
3.07185e-05
0.000151758
4.51914e-05
0.000154291
6.08862e-05
0.000157469
7.75932e-05
0.000161412
9.50112e-05
0.000166265
0.000112743
0.000172194
0.000130317
0.000179395
0.000147126
0.000188107
0.000162443
0.000198548
0.000175142
0.000210775
0.000184058
0.000224131
0.000186773
0.000237651
0.000182719
0.000247536
0.000167926
0.000253946
0.000148814
0.000256775
0.000125937
0.000256363
0.000101556
0.000253731
7.74468e-05
0.000249709
5.4852e-05
0.000244903
3.4244e-05
0.000239747
1.58563e-05
0.000234544
-2.53613e-07
0.000229511
-1.40678e-05
0.000224806
-2.5559e-05
0.000220611
-3.46105e-05
0.000217131
-4.11591e-05
0.000214717
-4.50309e-05
0.000213334
-4.70356e-05
0.000212719
-4.79692e-05
0.000212382
-4.88181e-05
0.000211781
-5.0223e-05
0.000210561
-5.23744e-05
0.000208667
-5.50021e-05
0.000206056
-5.8092e-05
0.000202868
-6.11629e-05
0.000199309
-6.38443e-05
0.000195575
-6.58759e-05
0.000191826
-6.71162e-05
0.000188182
-6.75317e-05
0.000184727
-6.71634e-05
0.000181511
-6.61032e-05
0.000178561
-6.44725e-05
0.000175885
-6.24163e-05
0.000173475
-6.00875e-05
0.00017131
-5.76751e-05
0.000169362
-5.53438e-05
0.000167579
-5.34058e-05
-5.19383e-05
0.000147429
5.16733e-06
0.000148454
1.65051e-05
0.000150043
2.91293e-05
0.000152189
4.30447e-05
0.000154938
5.81378e-05
0.000158377
7.41541e-05
0.000162623
9.0765e-05
0.00016781
0.000107556
0.000174089
0.000124038
0.000181622
0.000139593
0.000190571
0.000153494
0.000200992
0.000164722
0.000212809
0.000172241
0.000225359
0.000174223
0.000237794