/*--------------------------------*- C++ -*----------------------------------*\
| =========                 |                                                 |
| \\      /  F ield         | OpenFOAM: The Open Source CFD Toolbox           |
|  \\    /   O peration     | Version:  v1906                                 |
|   \\  /    A nd           | Web:      www.OpenFOAM.com                      |
|    \\/     M anipulation  |                                                 |
\*---------------------------------------------------------------------------*/
FoamFile
{
    version     2.0;
    format      ascii;
    class       volScalarField;
    location    "1500";
    object      T;
}
// * * * * * * * * * * * * * * * * * * * * * * * * * * * * * * * * * * * * * //

dimensions      [0 0 0 1 0 0 0];


internalField   nonuniform List<scalar> 
2000
(
300
300.002
300.006
300.014
300.025
300.04
300.064
300.099
300.16
300.268
300.47
300.831
301.455
302.645
305.843
306.888
304.842
304.776
304.806
304.88
304.977
305.11
305.277
305.482
305.726
305.956
306.339
306.517
309.575
306.78
302.533
302.585
302.447
302.386
302.294
302.217
302.137
302.064
301.995
301.931
301.872
301.818
301.769
301.726
301.687
301.654
301.626
301.603
301.585
301.574
300
300.003
300.009
300.018
300.031
300.049
300.074
300.113
300.174
300.275
300.445
300.726
301.179
301.961
303.772
306.66
304.88
304.743
304.737
304.784
304.875
305.016
305.213
305.468
305.785
306.147
306.552
306.877
310.01
306.815
302.855
302.708
302.593
302.497
302.395
302.297
302.203
302.115
302.034
301.96
301.893
301.833
301.779
301.731
301.689
301.653
301.623
301.599
301.582
301.572
300.001
300.004
300.011
300.021
300.035
300.054
300.081
300.12
300.18
300.273
300.42
300.649
300.997
301.552
302.723
306.321
304.901
304.706
304.674
304.701
304.784
304.927
305.139
305.429
305.804
306.263
306.786
307.361
310.56
306.893
303.198
302.875
302.718
302.591
302.47
302.356
302.248
302.15
302.06
301.978
301.905
301.84
301.782
301.732
301.688
301.651
301.62
301.596
301.578
301.569
300.001
300.005
300.012
300.023
300.037
300.057
300.085
300.124
300.181
300.267
300.395
300.584
300.861
301.284
302.208
306.063
304.891
304.665
304.607
304.614
304.683
304.822
305.042
305.359
305.79
306.347
307.023
307.862
310.978
306.906
303.508
303.049
302.839
302.68
302.538
302.407
302.287
302.177
302.079
301.991
301.913
301.844
301.784
301.731
301.686
301.647
301.616
301.591
301.574
301.564
300.001
300.006
300.013
300.024
300.039
300.059
300.087
300.125
300.179
300.257
300.369
300.529
300.755
301.099
301.909
305.872
304.856
304.614
304.526
304.514
304.567
304.695
304.915
305.25
305.729
306.381
307.235
308.352
311.43
306.937
303.779
303.224
302.962
302.77
302.604
302.455
302.321
302.201
302.095
302.001
301.918
301.846
301.783
301.728
301.681
301.642
301.61
301.585
301.568
301.559
300.002
300.007
300.014
300.025
300.04
300.06
300.087
300.124
300.175
300.246
300.345
300.481
300.672
300.965
301.708
305.724
304.804
304.549
304.434
304.4
304.432
304.543
304.755
305.097
305.609
306.35
307.386
308.808
311.948
306.997
304.024
303.399
303.087
302.86
302.668
302.5
302.351
302.221
302.106
302.007
301.92
301.844
301.779
301.723
301.675
301.636
301.603
301.578
301.561
301.552
300.002
300.007
300.015
300.026
300.041
300.061
300.087
300.122
300.169
300.234
300.322
300.44
300.605
300.864
301.561
305.602
304.741
304.47
304.33
304.27
304.278
304.368
304.562
304.895
305.421
306.224
307.426
309.203
312.526
307.095
304.255
303.573
303.213
302.948
302.729
302.54
302.377
302.236
302.114
302.009
301.918
301.84
301.773
301.716
301.668
301.627
301.595
301.57
301.553
301.544
300.002
300.008
300.016
300.027
300.042
300.061
300.086
300.119
300.163
300.222
300.3
300.405
300.55
300.785
301.448
305.494
304.668
304.379
304.213
304.124
304.106
304.17
304.338
304.648
305.161
305.986
307.317
309.482
313.256
307.23
304.483
303.749
303.339
303.034
302.784
302.574
302.396
302.245
302.117
302.007
301.913
301.833
301.765
301.707
301.658
301.618
301.585
301.56
301.543
301.534
300.002
300.008
300.017
300.028
300.042
300.061
300.085
300.116
300.157
300.21
300.281
300.374
300.504
300.721
301.357
305.4
304.587
304.276
304.082
303.963
303.918
303.953
304.089
304.363
304.836
305.633
307.011
309.521
314.075
307.408
304.719
303.928
303.462
303.113
302.832
302.6
302.408
302.248
302.114
302
301.904
301.823
301.754
301.695
301.646
301.606
301.573
301.549
301.532
301.523
300.002
300.009
300.017
300.028
300.042
300.06
300.083
300.112
300.15
300.199
300.263
300.347
300.466
300.668
301.281
305.306
304.498
304.16
303.937
303.788
303.716
303.721
303.823
304.051
304.46
305.175
306.486
309.206
315.361
307.65
304.972
304.111
303.579
303.181
302.867
302.615
302.41
302.243
302.104
301.988
301.891
301.809
301.74
301.681
301.633
301.593
301.56
301.536
301.519
301.511
300.003
300.009
300.018
300.028
300.042
300.059
300.081
300.109
300.144
300.189
300.246
300.323
300.432
300.621
301.216
305.229
304.402
304.03
303.775
303.599
303.501
303.48
303.548
303.725
304.057
304.645
305.752
308.268
315.362
307.93
305.255
304.297
303.683
303.231
302.885
302.615
302.401
302.228
302.087
301.971
301.873
301.792
301.723
301.665
301.617
301.577
301.546
301.522
301.506
301.497
300.003
300.009
300.018
300.028
300.042
300.058
300.079
300.105
300.138
300.179
300.231
300.301
300.401
300.58
301.156
305.131
304.294
303.881
303.593
303.394
303.275
303.233
303.271
303.401
303.652
304.092
304.897
306.67
312.028
308.34
305.586
304.476
303.76
303.252
302.879
302.597
302.378
302.204
302.063
301.947
301.851
301.77
301.703
301.646
301.599
301.56
301.529
301.506
301.49
301.482
300.003
300.01
300.018
300.028
300.041
300.057
300.077
300.101
300.132
300.169
300.218
300.281
300.373
300.541
301.1
305.08
304.169
303.701
303.383
303.167
303.038
302.983
302.998
303.087
303.266
303.572
304.092
305.097
307.838
308.787
305.961
304.615
303.784
303.231
302.843
302.558
302.34
302.168
302.03
301.917
301.823
301.745
301.679
301.624
301.579
301.541
301.511
301.489
301.474
301.466
300.003
300.01
300.018
300.028
300.041
300.056
300.075
300.098
300.126
300.161
300.205
300.263
300.347
300.503
301.044
304.937
303.995
303.468
303.132
302.917
302.79
302.731
302.733
302.791
302.914
303.116
303.434
304.002
305.72
309.632
306.3
304.636
303.718
303.153
302.772
302.496
302.286
302.122
301.989
301.881
301.791
301.716
301.653
301.6
301.556
301.52
301.492
301.47
301.456
301.448
300.003
300.01
300.018
300.028
300.04
300.055
300.072
300.094
300.12
300.153
300.193
300.246
300.322
300.464
300.986
304.989
303.714
303.144
302.829
302.641
302.532
302.481
302.478
302.516
302.6
302.729
302.917
303.236
304.48
310.3
306.195
304.395
303.524
303.009
302.663
302.41
302.217
302.064
301.94
301.839
301.754
301.683
301.623
301.574
301.532
301.498
301.471
301.45
301.436
301.429
300.003
300.01
300.018
300.028
300.039
300.053
300.07
300.091
300.115
300.145
300.183
300.231
300.298
300.421
300.903
304.2
303.101
302.689
302.472
302.343
302.268
302.235
302.235
302.264
302.322
302.405
302.511
302.662
303.274
307.339
304.849
303.797
303.2
302.804
302.52
302.304
302.134
301.997
301.884
301.791
301.713
301.647
301.591
301.545
301.506
301.474
301.448
301.429
301.416
301.409
300.003
300.01
300.018
300.027
300.038
300.052
300.068
300.087
300.111
300.139
300.173
300.217
300.277
300.373
300.595
301.927
302.162
302.144
302.085
302.036
302.007
301.997
302.006
302.033
302.077
302.133
302.196
302.27
302.462
303.528
303.415
303.121
302.823
302.566
302.355
302.182
302.039
301.921
301.822
301.738
301.668
301.608
301.557
301.514
301.478
301.448
301.424
301.406
301.394
301.388
300.003
300.01
300.017
300.027
300.037
300.05
300.066
300.084
300.106
300.133
300.165
300.205
300.26
300.343
300.515
301.138
301.5
301.66
301.721
301.744
301.757
301.772
301.793
301.823
301.86
301.903
301.947
301.997
302.109
302.517
302.636
302.594
302.47
302.323
302.18
302.051
301.938
301.839
301.755
301.682
301.619
301.566
301.52
301.481
301.448
301.421
301.399
301.382
301.371
301.366
300.003
300.009
300.017
300.026
300.037
300.049
300.064
300.081
300.102
300.127
300.157
300.195
300.246
300.321
300.464
300.805
301.103
301.298
301.414
301.483
301.529
301.565
301.598
301.633
301.669
301.705
301.742
301.783
301.862
302.056
302.175
302.205
302.171
302.097
302.009
301.918
301.832
301.754
301.684
301.622
301.568
301.521
301.481
301.446
301.416
301.392
301.372
301.358
301.347
301.342
300.003
300.009
300.017
300.025
300.036
300.048
300.062
300.079
300.098
300.122
300.151
300.186
300.234
300.302
300.42
300.635
300.859
301.04
301.171
301.262
301.328
301.379
301.422
301.462
301.499
301.534
301.567
301.605
301.665
301.775
301.868
301.917
301.922
301.895
301.846
301.787
301.726
301.667
301.611
301.561
301.515
301.475
301.44
301.41
301.384
301.362
301.345
301.332
301.323
301.318
300.003
300.009
300.016
300.025
300.035
300.046
300.06
300.076
300.095
300.117
300.144
300.178
300.222
300.285
300.381
300.532
300.702
300.856
300.982
301.079
301.155
301.215
301.265
301.309
301.348
301.383
301.417
301.452
301.501
301.574
301.645
301.696
301.719
301.717
301.696
301.662
301.622
301.579
301.537
301.498
301.461
301.428
301.398
301.372
301.35
301.332
301.316
301.305
301.297
301.293
300.003
300.009
300.016
300.024
300.033
300.045
300.058
300.073
300.091
300.113
300.139
300.171
300.212
300.268
300.349
300.462
300.593
300.722
300.836
300.93
301.008
301.072
301.126
301.173
301.213
301.25
301.284
301.318
301.361
301.415
301.472
301.519
301.55
301.563
301.56
301.545
301.522
301.494
301.464
301.434
301.405
301.379
301.355
301.334
301.315
301.3
301.287
301.278
301.271
301.268
300.003
300.008
300.015
300.023
300.032
300.043
300.056
300.071
300.088
300.109
300.133
300.163
300.201
300.252
300.32
300.41
300.515
300.622
300.721
300.809
300.885
300.949
301.004
301.052
301.094
301.132
301.166
301.2
301.238
301.283
301.33
301.373
301.407
301.428
301.437
301.436
301.426
301.41
301.391
301.37
301.35
301.33
301.311
301.295
301.28
301.267
301.257
301.249
301.244
301.241
300.002
300.008
300.015
300.022
300.031
300.042
300.054
300.068
300.085
300.104
300.128
300.156
300.192
300.237
300.295
300.369
300.454
300.544
300.631
300.71
300.781
300.844
300.898
300.946
300.988
301.026
301.061
301.094
301.13
301.169
301.21
301.249
301.283
301.309
301.326
301.334
301.335
301.33
301.32
301.308
301.294
301.28
301.267
301.255
301.244
301.234
301.227
301.221
301.217
301.215
300.002
300.008
300.014
300.021
300.03
300.04
300.052
300.066
300.082
300.101
300.123
300.149
300.182
300.223
300.274
300.336
300.407
300.482
300.557
300.629
300.694
300.753
300.806
300.853
300.894
300.932
300.967
301
301.033
301.069
301.106
301.142
301.176
301.204
301.226
301.241
301.249
301.252
301.251
301.246
301.239
301.231
301.223
301.215
301.207
301.201
301.196
301.192
301.189
301.188
300.002
300.007
300.013
300.021
300.029
300.039
300.05
300.063
300.079
300.097
300.118
300.143
300.173
300.21
300.254
300.307
300.368
300.432
300.497
300.561
300.621
300.675
300.725
300.77
300.811
300.848
300.882
300.915
300.947
300.98
301.014
301.048
301.08
301.11
301.135
301.154
301.169
301.178
301.184
301.185
301.184
301.182
301.178
301.174
301.171
301.167
301.164
301.162
301.161
301.16
300.002
300.007
300.013
300.02
300.028
300.037
300.048
300.061
300.076
300.093
300.113
300.136
300.164
300.197
300.237
300.283
300.335
300.39
300.447
300.504
300.558
300.608
300.655
300.698
300.737
300.773
300.806
300.838
300.869
300.9
300.932
300.964
300.995
301.025
301.051
301.075
301.094
301.108
301.119
301.126
301.13
301.133
301.134
301.134
301.134
301.133
301.133
301.133
301.133
301.133
300.002
300.007
300.012
300.019
300.027
300.036
300.046
300.059
300.073
300.089
300.108
300.13
300.156
300.186
300.221
300.262
300.307
300.355
300.405
300.455
300.504
300.55
300.593
300.634
300.671
300.706
300.738
300.768
300.798
300.828
300.858
300.888
300.918
300.948
300.975
301
301.023
301.041
301.057
301.069
301.078
301.084
301.09
301.093
301.096
301.099
301.101
301.103
301.104
301.105
300.002
300.006
300.012
300.018
300.026
300.034
300.045
300.056
300.07
300.085
300.103
300.124
300.148
300.175
300.207
300.243
300.282
300.325
300.369
300.413
300.457
300.499
300.539
300.577
300.612
300.645
300.676
300.706
300.734
300.762
300.791
300.82
300.848
300.877
300.905
300.932
300.956
300.978
300.997
301.013
301.026
301.037
301.046
301.053
301.059
301.065
301.069
301.073
301.076
301.078
300.002
300.006
300.011
300.017
300.024
300.033
300.043
300.054
300.067
300.082
300.099
300.118
300.14
300.165
300.193
300.225
300.26
300.298
300.337
300.377
300.416
300.455
300.491
300.526
300.559
300.591
300.62
300.648
300.676
300.703
300.73
300.757
300.785
300.813
300.84
300.867
300.893
300.917
300.939
300.958
300.975
300.99
301.002
301.013
301.022
301.03
301.037
301.043
301.048
301.05
300.002
300.005
300.01
300.016
300.023
300.031
300.041
300.052
300.064
300.078
300.094
300.112
300.132
300.155
300.181
300.21
300.241
300.275
300.309
300.345
300.38
300.415
300.449
300.481
300.512
300.542
300.57
300.596
300.623
300.648
300.674
300.7
300.726
300.753
300.78
300.808
300.834
300.86
300.884
300.906
300.926
300.943
300.959
300.973
300.985
300.996
301.006
301.013
301.019
301.023
300.001
300.005
300.009
300.015
300.022
300.03
300.039
300.05
300.061
300.075
300.09
300.106
300.125
300.146
300.17
300.196
300.224
300.253
300.285
300.316
300.348
300.38
300.411
300.441
300.47
300.497
300.524
300.549
300.574
300.598
300.623
300.647
300.672
300.698
300.725
300.751
300.778
300.805
300.83
300.855
300.877
300.898
300.916
300.933
300.948
300.962
300.974
300.984
300.991
300.996
300.001
300.004
300.009
300.014
300.021
300.029
300.037
300.047
300.059
300.071
300.085
300.101
300.118
300.138
300.159
300.183
300.208
300.234
300.262
300.291
300.32
300.349
300.377
300.404
300.431
300.457
300.482
300.506
300.529
300.552
300.576
300.599
300.623
300.647
300.673
300.699
300.725
300.752
300.779
300.805
300.83
300.853
300.874
300.894
300.911
300.927
300.942
300.954
300.963
300.969
300.001
300.004
300.008
300.013
300.02
300.027
300.036
300.045
300.056
300.068
300.081
300.096
300.112
300.13
300.149
300.17
300.193
300.217
300.242
300.268
300.294
300.32
300.346
300.371
300.396
300.42
300.443
300.466
300.488
300.51
300.532
300.554
300.577
300.6
300.624
300.649
300.675
300.702
300.729
300.756
300.783
300.808
300.832
300.854
300.874
300.893
300.91
300.924
300.935
300.942
300.001
300.003
300.007
300.012
300.019
300.026
300.034
300.043
300.053
300.064
300.077
300.09
300.105
300.122
300.14
300.159
300.179
300.201
300.224
300.247
300.27
300.294
300.318
300.341
300.364
300.386
300.408
300.429
300.45
300.471
300.492
300.512
300.534
300.556
300.578
300.602
300.628
300.654
300.681
300.709
300.737
300.764
300.789
300.814
300.837
300.858
300.877
300.894
300.907
300.916
300.001
300.003
300.007
300.012
300.017
300.024
300.032
300.041
300.05
300.061
300.072
300.085
300.099
300.114
300.13
300.148
300.166
300.186
300.206
300.227
300.249
300.27
300.292
300.313
300.334
300.355
300.375
300.395
300.415
300.434
300.454
300.474
300.493
300.514
300.536
300.558
300.582
300.608
300.635
300.662
300.691
300.719
300.747
300.773
300.799
300.822
300.844
300.863
300.879
300.89
300
300.003
300.006
300.011
300.016
300.023
300.03
300.038
300.047
300.057
300.068
300.08
300.092
300.106
300.121
300.137
300.154
300.172
300.19
300.209
300.228
300.248
300.268
300.287
300.307
300.326
300.345
300.363
300.382
300.4
300.418
300.437
300.455
300.475
300.495
300.516
300.539
300.563
300.589
300.616
300.645
300.674
300.703
300.731
300.759
300.785
300.809
300.831
300.85
300.863
300
300.002
300.005
300.01
300.015
300.021
300.028
300.035
300.044
300.053
300.063
300.074
300.086
300.099
300.112
300.126
300.142
300.158
300.174
300.191
300.209
300.226
300.244
300.262
300.28
300.297
300.315
300.332
300.349
300.367
300.384
300.401
300.419
300.437
300.455
300.475
300.496
300.519
300.543
300.569
300.597
300.627
300.657
300.687
300.716
300.745
300.771
300.796
300.818
300.836
300
300.002
300.005
300.008
300.013
300.019
300.025
300.032
300.04
300.048
300.058
300.068
300.078
300.09
300.102
300.115
300.128
300.143
300.157
300.173
300.188
300.204
300.22
300.236
300.252
300.268
300.284
300.3
300.316
300.332
300.348
300.364
300.38
300.397
300.414
300.432
300.451
300.472
300.494
300.519
300.545
300.574
300.604
300.635
300.666
300.696
300.725
300.754
300.779
300.804
300
300.001
300.003
300.006
300.01
300.015
300.021
300.027
300.034
300.042
300.05
300.059
300.068
300.078
300.089
300.1
300.111
300.123
300.136
300.149
300.162
300.176
300.189
300.204
300.218
300.232
300.246
300.261
300.275
300.29
300.305
300.32
300.335
300.35
300.365
300.382
300.398
300.416
300.435
300.456
300.479
300.505
300.532
300.563
300.594
300.628
300.658
300.694
300.717
300.759
)
;

boundaryField
{
    floor
    {
        type            zeroGradient;
    }
    ceiling
    {
        type            zeroGradient;
    }
    inlet
    {
        type            fixedValue;
        value           uniform 300;
    }
    outlet
    {
        type            inletOutlet;
        inletValue      uniform 300;
        value           nonuniform List<scalar> 
40
(
301.573
301.571
301.568
301.563
301.558
301.551
301.543
301.533
301.522
301.51
301.497
301.482
301.465
301.447
301.429
301.408
301.387
301.365
301.342
301.317
301.293
301.267
301.241
301.214
301.187
301.16
301.132
301.105
301.077
301.05
301.023
300.996
300.969
300.942
300.916
300.89
300.863
300.836
300.804
300.759
)
;
    }
    fixedWalls
    {
        type            empty;
    }
    baffleFacesThermoBaffle1D_master
    {
        type            compressible::thermalBaffle1D<hConstSolidThermoPhysics>;
        refValue        nonuniform List<scalar> 
16
(
324.001
319.397
316.83
315.165
314.077
313.314
312.738
312.277
311.896
311.569
311.286
311.017
310.776
310.494
310.241
309.284
)
;
        refGradient     uniform 0;
        valueFraction   nonuniform List<scalar> 
16
(
0.987125
0.987125
0.986342
0.984928
0.983872
0.983041
0.982351
0.981764
0.981259
0.980821
0.980442
0.980087
0.979787
0.979397
0.979014
0.973007
)
;
        value           nonuniform List<scalar> 
16
(
323.78
319.233
316.686
315.028
313.944
313.185
312.612
312.153
311.774
311.449
311.167
310.899
310.661
310.38
310.128
309.149
)
;
        sampleMode      nearestPatchFace;
        sampleRegion    region0;
        samplePatch     baffleFacesThermoBaffle1D_slave;
        coupleGroup     baffleFacesThermoBaffle1D;
        thickness       uniform 0.005;
        qs              uniform 100;
        specie
        {
            molWeight       20;
        }
        equationOfState
        {
            rho             10;
        }
        thermodynamics
        {
            Cp              10;
            Hf              0;
        }
        transport
        {
            kappa           1;
        }
        qrPrevious      uniform 0;
        qr              none;
        qrRelaxation    1;
    }
    baffleFacesThermoBaffle1D_slave
    {
        type            compressible::thermalBaffle1D<hConstSolidThermoPhysics>;
        refValue        nonuniform List<scalar> 
16
(
324.03
319.483
316.936
315.278
314.194
313.435
312.862
312.403
312.024
311.699
311.417
311.149
310.911
310.63
310.378
309.399
)
;
        refGradient     uniform 0;
        valueFraction   nonuniform List<scalar> 
16
(
0.984625
0.978621
0.974956
0.97228
0.970112
0.968378
0.966936
0.965685
0.964572
0.963562
0.962624
0.961713
0.96079
0.959789
0.958637
0.957145
)
;
        value           nonuniform List<scalar> 
16
(
323.751
319.147
316.581
314.916
313.827
313.064
312.488
312.028
311.646
311.319
311.036
310.767
310.527
310.244
309.99
309.035
)
;
        sampleMode      nearestPatchFace;
        sampleRegion    region0;
        samplePatch     baffleFacesThermoBaffle1D_master;
        coupleGroup     baffleFacesThermoBaffle1D;
        qrPrevious      uniform 0;
        qr              none;
        qrRelaxation    1;
    }
    baffleFacesThermoBaffle3D_master
    {
        type            compressible::thermalBaffle;
        refValue        nonuniform List<scalar> 
16
(
375.268
374.428
367.24
362.379
359.339
357.395
356.155
355.427
355.087
355.123
355.019
355.113
355.442
356.535
355.192
342.594
)
;
        refGradient     uniform 0;
        valueFraction   nonuniform List<scalar> 
16
(
0.950415
0.950132
0.942317
0.936779
0.932914
0.930103
0.928069
0.926688
0.925891
0.925899
0.925983
0.926841
0.928194
0.930582
0.92932
0.903038
)
;
        value           nonuniform List<scalar> 
16
(
371.857
371.05
363.757
358.872
355.824
353.872
352.626
351.893
351.553
351.605
351.533
351.691
352.091
353.279
352.019
339.175
)
;
        Tnbr            T;
        qrNbr           none;
        qr              none;
        thermalInertia  false;
        thicknessLayers 0();
        kappaLayers     0();
        kappaMethod     fluidThermo;
        kappa           none;
        alphaAni        none;
        extrudeModel    linearNormal;
        nLayers         50;
        expansionRatio  1;
        columnCells     false;
        linearNormalCoeffs 
        {
            thickness       0.02;
        }

        region          baffle3DRegion;
        active          yes;
        thermoType      
        {
            type            heSolidThermo;
            mixture         pureMixture;
            transport       constIso;
            thermo          hConst;
            equationOfState rhoConst;
            specie          specie;
            energy          sensibleEnthalpy;
        }

        mixture         
        {
            specie
            {
                molWeight       20;
            }
            transport
            {
                kappa           0.01;
            }
            thermodynamics
            {
                Hf              0;
                Cp              15;
            }
            equationOfState
            {
                rho             80;
            }
        }

        radiation       
        {
            radiationModel  opaqueSolid;
            absorptionEmissionModel none;
            scatterModel    none;
            transmissivityModel none;
        }

    }
    baffleFacesThermoBaffle3D_slave
    {
        type            compressible::thermalBaffle;
        refValue        nonuniform List<scalar> 
16
(
377.717
377.373
374.202
371.089
369.356
368.605
368.237
368.194
368.206
367.719
364.479
357.319
349.69
344.322
339.598
334.179
)
;
        refGradient     uniform 0;
        valueFraction   nonuniform List<scalar> 
16
(
0.950415
0.950415
0.947619
0.944637
0.942847
0.941885
0.941094
0.94045
0.939737
0.937931
0.933324
0.925566
0.917033
0.908847
0.899363
0.884767
)
;
        value           nonuniform List<scalar> 
16
(
374.354
374.04
370.87
367.761
366.045
365.312
364.956
364.923
364.945
364.47
361.204
353.945
346.216
340.802
336.063
330.617
)
;
        Tnbr            T;
        qrNbr           none;
        qr              none;
        thermalInertia  false;
        thicknessLayers 0();
        kappaLayers     0();
        kappaMethod     fluidThermo;
        kappa           none;
        alphaAni        none;
    }
}


// ************************************************************************* //
