/*--------------------------------*- C++ -*----------------------------------*\
| =========                 |                                                 |
| \\      /  F ield         | OpenFOAM: The Open Source CFD Toolbox           |
|  \\    /   O peration     | Version:  v1906                                 |
|   \\  /    A nd           | Web:      www.OpenFOAM.com                      |
|    \\/     M anipulation  |                                                 |
\*---------------------------------------------------------------------------*/
FoamFile
{
    version     2.0;
    format      ascii;
    class       volVectorField;
    location    "1500";
    object      U;
}
// * * * * * * * * * * * * * * * * * * * * * * * * * * * * * * * * * * * * * //

dimensions      [0 1 -1 0 0 0 0];


internalField   nonuniform List<vector> 
2000
(
(0.0918133 -0.0537081 0)
(0.152804 0.00315233 0)
(0.119009 0.00938947 0)
(0.0977575 0.00829971 0)
(0.0876456 0.00655806 0)
(0.0742315 0.0062277 0)
(0.0610239 0.00674524 0)
(0.0460806 0.00751498 0)
(0.0298045 0.00821238 0)
(0.0125499 0.00838339 0)
(-0.00429641 0.00755429 0)
(-0.0186641 0.00498494 0)
(-0.0260245 0.000690689 0)
(-0.0233245 -0.00625611 0)
(-0.00841499 -0.00648118 0)
(-0.010121 0.00620363 0)
(-0.0240145 0.00522117 0)
(-0.0382737 0.00551601 0)
(-0.0496855 0.00245827 0)
(-0.0524357 0.000340105 0)
(-0.0507806 -0.00368848 0)
(-0.0400802 -0.00642929 0)
(-0.0238221 -0.00874462 0)
(-0.00515499 -0.0105489 0)
(0.0179267 -0.0117078 0)
(0.0397544 -0.0111866 0)
(0.0597131 -0.00404279 0)
(0.0588101 0.00298879 0)
(0.0428508 0.015392 0)
(-0.0268121 0.0128677 0)
(-0.0532052 0.0102992 0)
(-0.0741383 0.00701102 0)
(-0.0869265 0.00256667 0)
(-0.0897605 0.000611681 0)
(-0.0896129 -0.00211273 0)
(-0.0829581 -0.00327818 0)
(-0.0755588 -0.00391784 0)
(-0.0662362 -0.00430933 0)
(-0.0568035 -0.00443025 0)
(-0.0471511 -0.00443375 0)
(-0.03784 -0.00434545 0)
(-0.0288515 -0.0042324 0)
(-0.0202417 -0.0040831 0)
(-0.0121689 -0.00381655 0)
(-0.00483428 -0.00369334 0)
(0.00318398 -0.00375656 0)
(0.0101845 -0.00403997 0)
(0.0207156 -0.00485074 0)
(0.0275637 -0.00651114 0)
(0.0522876 -0.0101661 0)
(0.101146 -0.000128012 0)
(0.0661464 0.00209669 0)
(0.0912212 0.00942781 0)
(0.0910026 0.0100576 0)
(0.0876731 0.0104464 0)
(0.0793782 0.0115634 0)
(0.0693792 0.0129801 0)
(0.0574139 0.0144494 0)
(0.0440388 0.0156082 0)
(0.0296732 0.0159312 0)
(0.0151876 0.0146806 0)
(0.0016654 0.0109908 0)
(-0.00867039 0.00395562 0)
(-0.014686 -0.00647564 0)
(-0.0121456 -0.0151956 0)
(-0.00984038 0.0152662 0)
(-0.0253556 0.013873 0)
(-0.0381715 0.0121635 0)
(-0.0473166 0.00630015 0)
(-0.0499521 0.00104574 0)
(-0.0484141 -0.00593743 0)
(-0.0411944 -0.011647 0)
(-0.0294743 -0.0162902 0)
(-0.0137988 -0.0197204 0)
(0.00500921 -0.0207249 0)
(0.0213845 -0.0188841 0)
(0.0363305 -0.00894272 0)
(0.0414166 0.00962682 0)
(0.0330989 0.042261 0)
(-0.0224768 0.0342802 0)
(-0.0467754 0.0238223 0)
(-0.0627145 0.0154782 0)
(-0.071076 0.00684458 0)
(-0.0728775 0.00141465 0)
(-0.070886 -0.00345261 0)
(-0.0655187 -0.0063751 0)
(-0.0585118 -0.00791673 0)
(-0.0503036 -0.00874888 0)
(-0.0417219 -0.0090107 0)
(-0.0330039 -0.008942 0)
(-0.0245215 -0.00868866 0)
(-0.0162856 -0.00835086 0)
(-0.00865817 -0.00785785 0)
(-0.00122792 -0.00744834 0)
(0.00590897 -0.00727191 0)
(0.0130193 -0.00732265 0)
(0.0197514 -0.00780912 0)
(0.0276156 -0.00892072 0)
(0.0340425 -0.0114646 0)
(0.0447483 -0.0145655 0)
(0.0987831 -0.00547018 0)
(0.0886193 0.00109042 0)
(0.0929919 0.00536003 0)
(0.0916549 0.0101999 0)
(0.0886095 0.0133714 0)
(0.0822217 0.0161753 0)
(0.0740614 0.0188046 0)
(0.0641009 0.0212192 0)
(0.0528143 0.0230729 0)
(0.0405437 0.0237834 0)
(0.0278836 0.0224897 0)
(0.0153257 0.0180885 0)
(0.0043706 0.00967895 0)
(-0.00470046 -0.0036086 0)
(-0.00560258 -0.0212672 0)
(-0.0113482 0.0261339 0)
(-0.0258772 0.0226709 0)
(-0.0368663 0.0181664 0)
(-0.0447536 0.00967024 0)
(-0.0476166 0.00152424 0)
(-0.0466833 -0.00810137 0)
(-0.0418568 -0.016314 0)
(-0.0332748 -0.02332 0)
(-0.0214515 -0.0284676 0)
(-0.00721824 -0.0305061 0)
(0.00736071 -0.0273372 0)
(0.019612 -0.0147019 0)
(0.0261935 0.0104475 0)
(0.0235568 0.061525 0)
(-0.0236927 0.0535278 0)
(-0.0410257 0.0352808 0)
(-0.0526327 0.0213426 0)
(-0.0579144 0.00945785 0)
(-0.0587065 0.000932934 0)
(-0.0560104 -0.00578402 0)
(-0.0511518 -0.00994948 0)
(-0.0447436 -0.012297 0)
(-0.0374225 -0.0135144 0)
(-0.0297049 -0.0139249 0)
(-0.02187 -0.0138361 0)
(-0.0142588 -0.0133855 0)
(-0.00698914 -0.0127507 0)
(0.000102134 -0.0121373 0)
(0.00689483 -0.0115796 0)
(0.0133972 -0.0112335 0)
(0.0197213 -0.011189 0)
(0.0256956 -0.0116308 0)
(0.0319592 -0.0127291 0)
(0.0369415 -0.0148483 0)
(0.042972 -0.0171148 0)
(0.0995265 -0.0013422 0)
(0.0952705 0.00259172 0)
(0.0951154 0.00676459 0)
(0.0927781 0.0118715 0)
(0.0897842 0.0162494 0)
(0.0845228 0.0202922 0)
(0.0776754 0.0240141 0)
(0.0692293 0.0273525 0)
(0.0595358 0.0299262 0)
(0.0488542 0.0311074 0)
(0.037579 0.0299911 0)
(0.0260173 0.0253872 0)
(0.014846 0.0161738 0)
(0.00448078 0.000962429 0)
(-0.000180013 -0.0224436 0)
(-0.012138 0.0374048 0)
(-0.0257678 0.0309974 0)
(-0.0356929 0.0237126 0)
(-0.0425557 0.0130666 0)
(-0.0458357 0.00216677 0)
(-0.0457545 -0.00961516 0)
(-0.0429066 -0.019649 0)
(-0.036828 -0.0288265 0)
(-0.0283776 -0.0356017 0)
(-0.0177174 -0.0386374 0)
(-0.00600704 -0.0355397 0)
(0.00608595 -0.0212756 0)
(0.0141196 0.00992252 0)
(0.0171639 0.0721182 0)
(-0.0211389 0.0735919 0)
(-0.0357042 0.0442222 0)
(-0.043621 0.0258986 0)
(-0.0468904 0.0107809 0)
(-0.0462954 -8.85981e-05 0)
(-0.0431582 -0.00813853 0)
(-0.0384654 -0.0133512 0)
(-0.032535 -0.0163854 0)
(-0.0259434 -0.017973 0)
(-0.0190059 -0.0185282 0)
(-0.012186 -0.0183357 0)
(-0.00531989 -0.0177982 0)
(0.00138123 -0.0170847 0)
(0.0077937 -0.0162882 0)
(0.0139456 -0.0155491 0)
(0.0197876 -0.0150291 0)
(0.0253827 -0.0148254 0)
(0.0305765 -0.0151084 0)
(0.0356648 -0.0159647 0)
(0.0395414 -0.0175619 0)
(0.04369 -0.0190551 0)
(0.0996547 -0.000218125 0)
(0.0974626 0.00355419 0)
(0.0963519 0.00791197 0)
(0.0939135 0.0134685 0)
(0.091037 0.0187226 0)
(0.0865461 0.0237589 0)
(0.0807138 0.0284322 0)
(0.0734814 0.0326099 0)
(0.065075 0.0358779 0)
(0.0556596 0.037588 0)
(0.0454599 0.036821 0)
(0.0346263 0.0323743 0)
(0.0234242 0.0230596 0)
(0.0120823 0.00686803 0)
(0.00516137 -0.0193053 0)
(-0.0122641 0.0486676 0)
(-0.0252089 0.0388336 0)
(-0.0347461 0.0285091 0)
(-0.0406205 0.0162643 0)
(-0.0440096 0.00339536 0)
(-0.0449798 -0.00998242 0)
(-0.0435314 -0.0219837 0)
(-0.0397762 -0.0325749 0)
(-0.0343997 -0.0405147 0)
(-0.0268241 -0.0447849 0)
(-0.0177971 -0.0423433 0)
(-0.00705744 -0.027931 0)
(0.00259251 0.0061272 0)
(0.00915697 0.0801318 0)
(-0.0179675 0.0889905 0)
(-0.0297078 0.0512941 0)
(-0.0351478 0.0286078 0)
(-0.036436 0.0111737 0)
(-0.0347633 -0.00146079 0)
(-0.0312515 -0.0106193 0)
(-0.0265918 -0.0166129 0)
(-0.0210461 -0.0201639 0)
(-0.0151054 -0.0219651 0)
(-0.00907842 -0.0225489 0)
(-0.00281831 -0.0224381 0)
(0.0033368 -0.0218443 0)
(0.00930507 -0.0209745 0)
(0.0150508 -0.0200118 0)
(0.0205382 -0.0191014 0)
(0.0257272 -0.0183916 0)
(0.0306314 -0.0179876 0)
(0.0350995 -0.0180268 0)
(0.0392835 -0.0185413 0)
(0.0423619 -0.019577 0)
(0.0455548 -0.0204648 0)
(0.099767 0.000514504 0)
(0.0983647 0.00438821 0)
(0.0970564 0.00912891 0)
(0.0948245 0.0150197 0)
(0.0921639 0.0209198 0)
(0.0882958 0.026734 0)
(0.0833022 0.0322136 0)
(0.0770826 0.0371515 0)
(0.0697474 0.041099 0)
(0.0613671 0.0434037 0)
(0.0520128 0.0431568 0)
(0.0416892 0.0391791 0)
(0.0303575 0.0302434 0)
(0.0181878 0.0141008 0)
(0.00865035 -0.0130516 0)
(-0.0119677 0.059662 0)
(-0.024323 0.0463036 0)
(-0.0332671 0.0333941 0)
(-0.0389184 0.0187688 0)
(-0.0419479 0.00494746 0)
(-0.0435507 -0.00983216 0)
(-0.0433159 -0.0229948 0)
(-0.0416982 -0.0345844 0)
(-0.0387834 -0.0438126 0)
(-0.034295 -0.0490946 0)
(-0.0278794 -0.047951 0)
(-0.0184247 -0.0344215 0)
(-0.00811712 0.000196411 0)
(0.0048074 0.0804573 0)
(-0.0149546 0.101784 0)
(-0.0235997 0.056659 0)
(-0.0268091 0.0300504 0)
(-0.0263108 0.010573 0)
(-0.0237048 -0.00330873 0)
(-0.0198076 -0.0132078 0)
(-0.0151755 -0.0197158 0)
(-0.0102148 -0.0235279 0)
(-0.00483734 -0.0255021 0)
(0.000719674 -0.0262269 0)
(0.00626277 -0.0260952 0)
(0.0117032 -0.0254095 0)
(0.0169819 -0.0244214 0)
(0.0220532 -0.0233153 0)
(0.0268888 -0.0222389 0)
(0.0314396 -0.0213385 0)
(0.0356935 -0.0207161 0)
(0.0395063 -0.0204812 0)
(0.0429697 -0.0206368 0)
(0.045457 -0.0211814 0)
(0.0480606 -0.0216142 0)
(0.0998394 0.00101642 0)
(0.0987898 0.00513016 0)
(0.097489 0.010246 0)
(0.0955108 0.0164402 0)
(0.0931183 0.0228482 0)
(0.0897937 0.0292916 0)
(0.0855183 0.0354621 0)
(0.080162 0.0410964 0)
(0.0737381 0.0457199 0)
(0.0662217 0.0486914 0)
(0.0575433 0.0491304 0)
(0.0475714 0.045901 0)
(0.0360139 0.0377647 0)
(0.0230414 0.0223611 0)
(0.0113011 -0.00454936 0)
(-0.0115198 0.0703045 0)
(-0.0232076 0.0532966 0)
(-0.0313437 0.0377853 0)
(-0.0365791 0.0214423 0)
(-0.0393201 0.00638991 0)
(-0.0410679 -0.00918603 0)
(-0.0417676 -0.0231425 0)
(-0.0417653 -0.0353383 0)
(-0.0410735 -0.0452369 0)
(-0.0394535 -0.051658 0)
(-0.0358855 -0.052229 0)
(-0.0282685 -0.0408525 0)
(-0.0177991 -0.00776106 0)
(0.00121363 0.0774247 0)
(-0.0115945 0.112297 0)
(-0.0172388 0.0603367 0)
(-0.0183773 0.0302824 0)
(-0.0162943 0.00923757 0)
(-0.0128626 -0.00551006 0)
(-0.00869813 -0.0159073 0)
(-0.00417934 -0.0226438 0)
(0.000598286 -0.0266687 0)
(0.00544163 -0.0287602 0)
(0.010321 -0.0294861 0)
(0.0151517 -0.0293079 0)
(0.019885 -0.0285445 0)
(0.0244784 -0.0274481 0)
(0.0288893 -0.0262089 0)
(0.0330887 -0.0249781 0)
(0.0370244 -0.0238938 0)
(0.0406708 -0.0230522 0)
(0.0438962 -0.0225439 0)
(0.0467677 -0.0223607 0)
(0.0487988 -0.0224969 0)
(0.0509765 -0.0225828 0)
(0.0998851 0.00140046 0)
(0.0990196 0.0058038 0)
(0.0977884 0.0112491 0)
(0.0960457 0.0177078 0)
(0.0939315 0.0245233 0)
(0.0910865 0.0314836 0)
(0.0874369 0.038251 0)
(0.0828275 0.0445289 0)
(0.077195 0.0498287 0)
(0.0704208 0.0535396 0)
(0.0623063 0.0548247 0)
(0.0525899 0.0526055 0)
(0.0407589 0.0456517 0)
(0.0269789 0.0316232 0)
(0.0135672 0.00630744 0)
(-0.0110047 0.080327 0)
(-0.0217556 0.0597238 0)
(-0.0288308 0.0417342 0)
(-0.0333335 0.0237676 0)
(-0.0355626 0.00771593 0)
(-0.0371361 -0.00828858 0)
(-0.0384319 -0.0225861 0)
(-0.0396278 -0.0350064 0)
(-0.0408794 -0.0452125 0)
(-0.0415851 -0.0524684 0)
(-0.0412481 -0.0547592 0)
(-0.0364621 -0.0465421 0)
(-0.026763 -0.0170415 0)
(-0.00555204 0.070558 0)
(-0.00913189 0.118977 0)
(-0.0104022 0.062079 0)
(-0.0097516 0.0293703 0)
(-0.00612193 0.00721852 0)
(-0.00194535 -0.0080894 0)
(0.00255201 -0.0186663 0)
(0.00694232 -0.0254965 0)
(0.0112834 -0.0295326 0)
(0.0155439 -0.0316049 0)
(0.0197463 -0.0323083 0)
(0.0238751 -0.0320813 0)
(0.0279121 -0.0312476 0)
(0.0318314 -0.0300579 0)
(0.0355978 -0.028703 0)
(0.0391812 -0.0273331 0)
(0.0425297 -0.0260786 0)
(0.0456114 -0.0250303 0)
(0.0483101 -0.0242675 0)
(0.0506815 -0.0237825 0)
(0.0523442 -0.0235863 0)
(0.0541748 -0.0234059 0)
(0.0999143 0.00171384 0)
(0.0991654 0.00641899 0)
(0.0980271 0.0121457 0)
(0.0964946 0.0188242 0)
(0.0946508 0.0259711 0)
(0.0922293 0.0333544 0)
(0.089131 0.0406375 0)
(0.0851774 0.0475079 0)
(0.0802532 0.0534931 0)
(0.0741429 0.0580091 0)
(0.0665335 0.0602872 0)
(0.0570338 0.0593252 0)
(0.0449237 0.0539107 0)
(0.0303152 0.0417527 0)
(0.01533 0.0184935 0)
(-0.0103084 0.0899008 0)
(-0.0197997 0.065408 0)
(-0.0254369 0.0449968 0)
(-0.0288543 0.0256221 0)
(-0.0302767 0.00873858 0)
(-0.0313848 -0.00736927 0)
(-0.0329202 -0.0215911 0)
(-0.0349108 -0.033813 0)
(-0.0375934 -0.0439427 0)
(-0.0405291 -0.0515679 0)
(-0.0429667 -0.055214 0)
(-0.0419911 -0.0506834 0)
(-0.0343029 -0.02685 0)
(-0.0122011 0.0554748 0)
(-0.00431271 0.123932 0)
(-0.00424262 0.0621997 0)
(-0.000674224 0.0272997 0)
(0.00444159 0.00441131 0)
(0.0092832 -0.0109624 0)
(0.0138819 -0.0214471 0)
(0.0180179 -0.0281295 0)
(0.021861 -0.0320613 0)
(0.025498 -0.034057 0)
(0.0290141 -0.0347029 0)
(0.0324438 -0.0344215 0)
(0.0357947 -0.0335269 0)
(0.0390545 -0.032261 0)
(0.0421951 -0.03081 0)
(0.0451865 -0.0293203 0)
(0.0479784 -0.0279153 0)
(0.0505363 -0.0266816 0)
(0.0527604 -0.0256933 0)
(0.0546988 -0.0249496 0)
(0.0560514 -0.0244867 0)
(0.0575761 -0.0241009 0)
(0.0999335 0.0019797 0)
(0.0992747 0.006978 0)
(0.0982398 0.0129422 0)
(0.0969063 0.0198125 0)
(0.0953234 0.027197 0)
(0.0932692 0.0349404 0)
(0.090664 0.0426702 0)
(0.0873017 0.0500962 0)
(0.083045 0.0567255 0)
(0.0775505 0.0621251 0)
(0.0704413 0.0655331 0)
(0.0611854 0.0660583 0)
(0.0488523 0.0625346 0)
(0.0334398 0.0527276 0)
(0.016914 0.0321704 0)
(-0.00952166 0.0982444 0)
(-0.0172032 0.0699926 0)
(-0.0207984 0.0473517 0)
(-0.0227489 0.0268439 0)
(-0.0231199 0.00918208 0)
(-0.0235535 -0.00654645 0)
(-0.024973 -0.0203905 0)
(-0.0273919 -0.0320576 0)
(-0.0310397 -0.0416669 0)
(-0.0355988 -0.0491101 0)
(-0.0407207 -0.0536275 0)
(-0.0434651 -0.0524736 0)
(-0.0412158 -0.0366785 0)
(-0.019456 0.0432984 0)
(-0.00146688 0.12395 0)
(0.00350788 0.060463 0)
(0.00922445 0.0238444 0)
(0.0155606 0.00102023 0)
(0.0208322 -0.0140141 0)
(0.0253712 -0.0241414 0)
(0.0290963 -0.0305024 0)
(0.0323489 -0.0342235 0)
(0.0353109 -0.0360918 0)
(0.0381226 -0.0366637 0)
(0.0408542 -0.0363318 0)
(0.0435306 -0.0353906 0)
(0.0461487 -0.0340687 0)
(0.0486857 -0.032544 0)
(0.0511115 -0.0309574 0)
(0.0533784 -0.029426 0)
(0.0554513 -0.0280337 0)
(0.0572453 -0.0268538 0)
(0.0588007 -0.0258953 0)
(0.0598831 -0.0252212 0)
(0.0611255 -0.0246775 0)
(0.0999467 0.00220901 0)
(0.0993679 0.00747964 0)
(0.098451 0.0136453 0)
(0.0973174 0.0206363 0)
(0.0959625 0.0282592 0)
(0.0942554 0.0362703 0)
(0.0921017 0.044376 0)
(0.0893092 0.0522821 0)
(0.0856378 0.0596129 0)
(0.0807834 0.0658755 0)
(0.074236 0.0705294 0)
(0.0653178 0.0727579 0)
(0.0529038 0.0714717 0)
(0.0367859 0.0645226 0)
(0.0186125 0.0469666 0)
(-0.0083319 0.105953 0)
(-0.0136523 0.0733171 0)
(-0.0151606 0.0483554 0)
(-0.0146745 0.0270489 0)
(-0.0137576 0.00910402 0)
(-0.0134431 -0.00614582 0)
(-0.0145073 -0.019183 0)
(-0.0170669 -0.0299721 0)
(-0.0212412 -0.038748 0)
(-0.0267763 -0.0455305 0)
(-0.0337157 -0.0500548 0)
(-0.0399269 -0.0506818 0)
(-0.0436904 -0.0412115 0)
(-0.0321683 0.0193381 0)
(0.00144905 0.122495 0)
(0.0120069 0.0565637 0)
(0.0198344 0.0194063 0)
(0.0273876 -0.00290672 0)
(0.0328052 -0.0171271 0)
(0.0370552 -0.0266332 0)
(0.0401794 -0.0325233 0)
(0.0427314 -0.0359678 0)
(0.0449649 -0.0376858 0)
(0.047055 -0.0381848 0)
(0.0490923 -0.0378164 0)
(0.0511095 -0.0368489 0)
(0.0531076 -0.0354946 0)
(0.0550664 -0.0339212 0)
(0.0569554 -0.0322632 0)
(0.0587295 -0.0306324 0)
(0.0603534 -0.0291113 0)
(0.0617556 -0.0277751 0)
(0.0629666 -0.0266438 0)
(0.0638074 -0.0258052 0)
(0.0647828 -0.0251415 0)
(0.0999567 0.00240537 0)
(0.0994556 0.00791866 0)
(0.0986756 0.0142428 0)
(0.0977249 0.0213525 0)
(0.096595 0.0291298 0)
(0.0952241 0.0373564 0)
(0.0934976 0.0457761 0)
(0.0912296 0.0541296 0)
(0.0881794 0.0620752 0)
(0.0839542 0.0692714 0)
(0.0780877 0.0751932 0)
(0.0696961 0.0793335 0)
(0.057456 0.0806434 0)
(0.0407705 0.0772102 0)
(0.0205229 0.0641338 0)
(-0.00733756 0.111246 0)
(-0.00828033 0.0746691 0)
(-0.00686834 0.0479276 0)
(-0.00408858 0.0260358 0)
(-0.00183216 0.00840065 0)
(-0.000995825 -0.00604784 0)
(-0.00191372 -0.0181115 0)
(-0.004327 -0.0278589 0)
(-0.00849999 -0.035534 0)
(-0.0143144 -0.0412512 0)
(-0.0219499 -0.045133 0)
(-0.0302491 -0.0462234 0)
(-0.0373557 -0.0415648 0)
(-0.0350797 -0.00845641 0)
(0.00599094 0.114674 0)
(0.0218037 0.050183 0)
(0.0323103 0.013648 0)
(0.0399743 -0.00689969 0)
(0.0453431 -0.020195 0)
(0.0488818 -0.0287633 0)
(0.0512119 -0.034093 0)
(0.052958 -0.0372427 0)
(0.0544206 -0.038818 0)
(0.0557813 -0.0392636 0)
(0.0571361 -0.0388828 0)
(0.0585156 -0.0379146 0)
(0.0599202 -0.0365543 0)
(0.0613296 -0.0349592 0)
(0.0627127 -0.0332569 0)
(0.0640262 -0.0315553 0)
(0.0652347 -0.0299364 0)
(0.0662786 -0.028479 0)
(0.067176 -0.0272138 0)
(0.0677971 -0.02625 0)
(0.0685166 -0.0254969 0)
(0.0999656 0.00257431 0)
(0.0995488 0.00829088 0)
(0.098908 0.0147265 0)
(0.0981336 0.0219466 0)
(0.097241 0.0298271 0)
(0.0961931 0.0382108 0)
(0.0948792 0.0468827 0)
(0.0931276 0.0556199 0)
(0.0906968 0.0641518 0)
(0.0872186 0.0721966 0)
(0.082103 0.0794626 0)
(0.0746152 0.0855444 0)
(0.0629774 0.0898145 0)
(0.0463549 0.0905126 0)
(0.0235532 0.081118 0)
(-0.00405556 0.115302 0)
(-0.00214532 0.0737852 0)
(0.00446564 0.0454631 0)
(0.00961277 0.0238465 0)
(0.0127449 0.00714388 0)
(0.0139917 -0.00611908 0)
(0.0131458 -0.0170298 0)
(0.0103961 -0.0257379 0)
(0.00613946 -0.0324057 0)
(0.000387381 -0.0371864 0)
(-0.00639125 -0.0400129 0)
(-0.0145782 -0.0407269 0)
(-0.0224309 -0.0384689 0)
(-0.0229391 -0.0281423 0)
(0.0117161 0.105613 0)
(0.0339529 0.0411396 0)
(0.0461246 0.00731668 0)
(0.0534782 -0.0109471 0)
(0.0582296 -0.0228137 0)
(0.0607063 -0.0303431 0)
(0.0620735 -0.035119 0)
(0.0629435 -0.0380081 0)
(0.0636199 -0.0394773 0)
(0.064262 -0.0399051 0)
(0.0649583 -0.0395436 0)
(0.0657299 -0.0386043 0)
(0.066573 -0.0372665 0)
(0.0674655 -0.0356773 0)
(0.0683751 -0.0339585 0)
(0.0692604 -0.0322149 0)
(0.0700853 -0.0305289 0)
(0.0708004 -0.0289836 0)
(0.07141 -0.0276198 0)
(0.0718286 -0.0265643 0)
(0.0723018 -0.0257472 0)
(0.0999734 0.0027056 0)
(0.099647 0.00859385 0)
(0.0991437 0.0151249 0)
(0.098551 0.0224019 0)
(0.0979054 0.030348 0)
(0.0971736 0.0388384 0)
(0.096265 0.0477006 0)
(0.0950301 0.0567509 0)
(0.0932501 0.0657845 0)
(0.0905814 0.0746244 0)
(0.0865014 0.0831022 0)
(0.0801225 0.0912341 0)
(0.0698767 0.098677 0)
(0.0538425 0.105038 0)
(0.0271169 0.107633 0)
(-0.00245726 0.114675 0)
(0.00919859 0.0689115 0)
(0.0205024 0.0405183 0)
(0.0265772 0.0208226 0)
(0.0303424 0.00554656 0)
(0.0312963 -0.00622671 0)
(0.0302065 -0.0158809 0)
(0.0273508 -0.0235014 0)
(0.0231456 -0.0292498 0)
(0.0177184 -0.0332333 0)
(0.0110528 -0.0354021 0)
(0.00356342 -0.0357308 0)
(-0.00383719 -0.0345408 0)
(-0.00640665 -0.0375276 0)
(0.0180754 0.0850346 0)
(0.0465745 0.028679 0)
(0.0608357 0.00102566 0)
(0.0677471 -0.0148088 0)
(0.0710735 -0.0247596 0)
(0.0722855 -0.0312378 0)
(0.072594 -0.0355406 0)
(0.0725767 -0.0382466 0)
(0.0724931 -0.0396726 0)
(0.0724531 -0.0401245 0)
(0.0725294 -0.0398205 0)
(0.0727317 -0.0389398 0)
(0.0730516 -0.0376527 0)
(0.0734634 -0.0360967 0)
(0.0739338 -0.0343885 0)
(0.0744231 -0.0326309 0)
(0.0748945 -0.0309073 0)
(0.0753075 -0.0293052 0)
(0.0756513 -0.0278743 0)
(0.075882 -0.0267556 0)
(0.0761177 -0.0258955 0)
(0.0999795 0.00280868 0)
(0.0997424 0.00881719 0)
(0.0993833 0.0154208 0)
(0.098983 0.0227226 0)
(0.0985854 0.0306937 0)
(0.0981672 0.0392418 0)
(0.0976612 0.0482301 0)
(0.0969474 0.0575115 0)
(0.0958494 0.0669384 0)
(0.0940843 0.0764244 0)
(0.0912372 0.0859592 0)
(0.0865911 0.0958225 0)
(0.0785692 0.106372 0)
(0.0661318 0.119135 0)
(0.0379697 0.124232 0)
(0.00727338 0.114428 0)
(0.0301453 0.0598569 0)
(0.0416775 0.0347207 0)
(0.0483286 0.0174405 0)
(0.0507402 0.00428677 0)
(0.0505482 -0.00607607 0)
(0.0486499 -0.0144972 0)
(0.045384 -0.0212568 0)
(0.0411913 -0.0263024 0)
(0.0362819 -0.0296341 0)
(0.0306862 -0.0311788 0)
(0.024649 -0.03102 0)
(0.017502 -0.0294162 0)
(0.0118778 -0.0370447 0)
(0.0294416 0.070851 0)
(0.0646159 0.0149165 0)
(0.0774263 -0.0055443 0)
(0.0820444 -0.017545 0)
(0.083388 -0.0257149 0)
(0.083275 -0.0313544 0)
(0.0825741 -0.0353593 0)
(0.0817315 -0.0379951 0)
(0.0809676 -0.0394256 0)
(0.0803083 -0.0399539 0)
(0.0798211 -0.0397371 0)
(0.0795028 -0.038947 0)
(0.079343 -0.0377374 0)
(0.0793134 -0.0362399 0)
(0.0793799 -0.0345678 0)
(0.0795052 -0.0328224 0)
(0.0796517 -0.0310886 0)
(0.0797872 -0.029458 0)
(0.079885 -0.0279881 0)
(0.0799405 -0.0268305 0)
(0.0799475 -0.0259451 0)
(0.0999857 0.00288012 0)
(0.0998355 0.00897072 0)
(0.0996254 0.0156057 0)
(0.0994246 0.0229038 0)
(0.0992753 0.0308637 0)
(0.0991688 0.0394219 0)
(0.099062 0.0484703 0)
(0.0988705 0.0578914 0)
(0.0984736 0.0675808 0)
(0.0976716 0.0775178 0)
(0.0962162 0.0878114 0)
(0.0935737 0.0990541 0)
(0.0887109 0.112317 0)
(0.0807657 0.135287 0)
(0.0491199 0.184997 0)
(0.0410753 0.0724658 0)
(0.0592227 0.0444675 0)
(0.0712183 0.0279724 0)
(0.0737907 0.0151505 0)
(0.0732952 0.00412518 0)
(0.0709713 -0.00496666 0)
(0.0677183 -0.0126168 0)
(0.06378 -0.0188156 0)
(0.0594538 -0.0235004 0)
(0.0549744 -0.0265924 0)
(0.0504385 -0.0279642 0)
(0.0461803 -0.027421 0)
(0.040735 -0.0234507 0)
(0.0394859 -0.0109812 0)
(0.0632243 0.0129145 0)
(0.0844382 -0.0011001 0)
(0.0928136 -0.0102062 0)
(0.0945979 -0.0186584 0)
(0.0944122 -0.0256373 0)
(0.0932665 -0.0308254 0)
(0.0918061 -0.034624 0)
(0.0903275 -0.037282 0)
(0.0889697 -0.0388109 0)
(0.08779 -0.0394355 0)
(0.086808 -0.0393349 0)
(0.0860282 -0.0386575 0)
(0.085437 -0.0375475 0)
(0.0850071 -0.0361307 0)
(0.0847059 -0.0345174 0)
(0.0844988 -0.032808 0)
(0.0843478 -0.031089 0)
(0.0842286 -0.0294552 0)
(0.0840981 -0.0279709 0)
(0.0839901 -0.0267951 0)
(0.083777 -0.0258993 0)
(0.0999917 0.00292111 0)
(0.099928 0.00904845 0)
(0.0998684 0.0156817 0)
(0.099868 0.0229449 0)
(0.0999663 0.030859 0)
(0.100167 0.039381 0)
(0.100453 0.0484232 0)
(0.100777 0.0578872 0)
(0.101082 0.0676916 0)
(0.101269 0.0778408 0)
(0.101319 0.08848 0)
(0.101029 0.100254 0)
(0.101425 0.114343 0)
(0.10052 0.138348 0)
(0.135725 0.17496 0)
(0.15631 0.0844308 0)
(0.117424 0.0447591 0)
(0.108348 0.0283607 0)
(0.10169 0.0164048 0)
(0.0964342 0.0061773 0)
(0.0913896 -0.00256029 0)
(0.0865602 -0.00997788 0)
(0.0818015 -0.0160584 0)
(0.0772112 -0.0207435 0)
(0.0729725 -0.0239654 0)
(0.0692136 -0.0256157 0)
(0.0665498 -0.0253577 0)
(0.0640478 -0.0214802 0)
(0.06952 -0.00973856 0)
(0.0857338 -0.00786214 0)
(0.0970923 -0.00772128 0)
(0.102609 -0.0123253 0)
(0.104021 -0.0188524 0)
(0.103502 -0.0250889 0)
(0.102058 -0.0297615 0)
(0.10014 -0.0335895 0)
(0.0982737 -0.0362532 0)
(0.0964783 -0.0378754 0)
(0.094874 -0.0386245 0)
(0.0934776 -0.0386547 0)
(0.0922989 -0.0381055 0)
(0.0913271 -0.0371117 0)
(0.0905397 -0.0357935 0)
(0.0899068 -0.0342583 0)
(0.089398 -0.0326058 0)
(0.0889754 -0.0309234 0)
(0.0886224 -0.0293089 0)
(0.0882801 -0.0278315 0)
(0.0880192 -0.0266553 0)
(0.087595 -0.0257617 0)
(0.0999974 0.00293212 0)
(0.100019 0.00905163 0)
(0.100109 0.0156478 0)
(0.100306 0.0228465 0)
(0.100648 0.0306819 0)
(0.101149 0.0391236 0)
(0.101814 0.0480959 0)
(0.102633 0.0575076 0)
(0.103608 0.0672797 0)
(0.104729 0.0773989 0)
(0.106153 0.0879556 0)
(0.107895 0.0993416 0)
(0.111797 0.112143 0)
(0.116218 0.128451 0)
(0.149151 0.145688 0)
(0.175205 0.0931739 0)
(0.150527 0.0583881 0)
(0.136485 0.0366763 0)
(0.125484 0.0219095 0)
(0.117255 0.0104643 0)
(0.110282 0.00113938 0)
(0.104225 -0.00661 0)
(0.0987675 -0.0129488 0)
(0.0938773 -0.0179282 0)
(0.0896602 -0.0215478 0)
(0.086198 -0.023775 0)
(0.084009 -0.0243499 0)
(0.0826623 -0.0225012 0)
(0.0865668 -0.0158643 0)
(0.0961049 -0.0118544 0)
(0.104167 -0.0114637 0)
(0.10921 -0.0143868 0)
(0.111182 -0.0192443 0)
(0.110964 -0.024511 0)
(0.109632 -0.0287023 0)
(0.107644 -0.0323491 0)
(0.10556 -0.0350128 0)
(0.103482 -0.0367129 0)
(0.101558 -0.0375796 0)
(0.0998283 -0.037742 0)
(0.0983137 -0.0373272 0)
(0.0970125 -0.0364593 0)
(0.0959095 -0.0352526 0)
(0.09498 -0.0338112 0)
(0.0941989 -0.0322331 0)
(0.0935292 -0.0306062 0)
(0.0929618 -0.0290301 0)
(0.0924228 -0.0275782 0)
(0.0920188 -0.0264166 0)
(0.0913926 -0.0255359 0)
(0.100003 0.00291381 0)
(0.100107 0.00898149 0)
(0.100342 0.0155064 0)
(0.100732 0.0226118 0)
(0.101309 0.0303375 0)
(0.102098 0.0386582 0)
(0.103122 0.0475019 0)
(0.104406 0.056775 0)
(0.105998 0.0663858 0)
(0.107957 0.0762785 0)
(0.110552 0.0864534 0)
(0.113939 0.0970002 0)
(0.120005 0.108001 0)
(0.127833 0.118389 0)
(0.153622 0.125453 0)
(0.174155 0.0932101 0)
(0.164553 0.0667293 0)
(0.153881 0.0445878 0)
(0.143242 0.0283039 0)
(0.134386 0.0156937 0)
(0.126691 0.00555818 0)
(0.120042 -0.00276489 0)
(0.114191 -0.00957033 0)
(0.109089 -0.0150077 0)
(0.104793 -0.0191421 0)
(0.101341 -0.0219972 0)
(0.0990716 -0.0233687 0)
(0.0977998 -0.0228694 0)
(0.0997621 -0.0191871 0)
(0.105277 -0.0161779 0)
(0.110886 -0.0151293 0)
(0.115139 -0.0165461 0)
(0.117262 -0.0199141 0)
(0.117361 -0.0241255 0)
(0.116269 -0.0277132 0)
(0.114395 -0.0310824 0)
(0.112242 -0.033665 0)
(0.110006 -0.0353974 0)
(0.107858 -0.0363572 0)
(0.105869 -0.0366408 0)
(0.104078 -0.0363576 0)
(0.102496 -0.035619 0)
(0.101118 -0.0345317 0)
(0.0999254 -0.0331955 0)
(0.0988996 -0.0317059 0)
(0.0980053 -0.0301505 0)
(0.0972417 -0.0286293 0)
(0.09652 -0.0272186 0)
(0.0959822 -0.0260844 0)
(0.0951629 -0.0252255 0)
(0.100008 0.00286729 0)
(0.100192 0.00884058 0)
(0.100566 0.0152614 0)
(0.101139 0.0222462 0)
(0.101939 0.0298334 0)
(0.102999 0.0379962 0)
(0.104358 0.0466596 0)
(0.106066 0.0557201 0)
(0.108207 0.0650641 0)
(0.110887 0.0745826 0)
(0.11442 0.0841757 0)
(0.119032 0.0936711 0)
(0.126321 0.10279 0)
(0.13574 0.109405 0)
(0.155015 0.112286 0)
(0.171323 0.0900278 0)
(0.169398 0.0701787 0)
(0.163742 0.0502406 0)
(0.155486 0.0339811 0)
(0.14762 0.0208348 0)
(0.140264 0.0100931 0)
(0.133681 0.0012228 0)
(0.127813 -0.00608289 0)
(0.122674 -0.0120164 0)
(0.118318 -0.0166808 0)
(0.114762 -0.0201287 0)
(0.112222 -0.0222056 0)
(0.110614 -0.0226893 0)
(0.111158 -0.0208164 0)
(0.114073 -0.0188095 0)
(0.117776 -0.0177003 0)
(0.121003 -0.0183379 0)
(0.122895 -0.0206258 0)
(0.123132 -0.0238775 0)
(0.122247 -0.0268545 0)
(0.12054 -0.0298557 0)
(0.118408 -0.0322786 0)
(0.116098 -0.0339887 0)
(0.113803 -0.0350064 0)
(0.111619 -0.0353908 0)
(0.109605 -0.035229 0)
(0.107787 -0.0346173 0)
(0.10617 -0.033653 0)
(0.104745 -0.0324296 0)
(0.1035 -0.0310395 0)
(0.102402 -0.0295685 0)
(0.101459 -0.028116 0)
(0.100567 -0.0267597 0)
(0.0999042 -0.0256638 0)
(0.0989008 -0.0248344 0)
(0.100013 0.00279413 0)
(0.100271 0.00863267 0)
(0.100775 0.0149186 0)
(0.101519 0.0217572 0)
(0.102528 0.0291797 0)
(0.103839 0.037152 0)
(0.105505 0.0455911 0)
(0.107592 0.0543791 0)
(0.110209 0.0633768 0)
(0.113485 0.0724231 0)
(0.117733 0.0813297 0)
(0.123181 0.0897432 0)
(0.131018 0.0971638 0)
(0.140618 0.101618 0)
(0.155976 0.101739 0)
(0.168954 0.0861702 0)
(0.1708 0.07071 0)
(0.169103 0.0535751 0)
(0.163616 0.0382965 0)
(0.15748 0.0252539 0)
(0.151139 0.0142739 0)
(0.145131 0.00504358 0)
(0.139587 -0.00266795 0)
(0.134614 -0.00903829 0)
(0.130294 -0.0141741 0)
(0.126652 -0.0181333 0)
(0.12384 -0.0208017 0)
(0.121829 -0.0220574 0)
(0.121367 -0.0213853 0)
(0.122586 -0.0202645 0)
(0.124766 -0.0194132 0)
(0.126963 -0.0196835 0)
(0.128402 -0.021229 0)
(0.128579 -0.0236806 0)
(0.127798 -0.0260984 0)
(0.126233 -0.0286889 0)
(0.124153 -0.0308924 0)
(0.121821 -0.0325287 0)
(0.119432 -0.0335656 0)
(0.117104 -0.0340253 0)
(0.114913 -0.0339699 0)
(0.112897 -0.0334783 0)
(0.111074 -0.0326364 0)
(0.109444 -0.0315303 0)
(0.108003 -0.0302475 0)
(0.10672 -0.0288712 0)
(0.105612 -0.0274987 0)
(0.104562 -0.0262081 0)
(0.103782 -0.0251596 0)
(0.102603 -0.0243662 0)
(0.100017 0.00269631 0)
(0.100343 0.00836262 0)
(0.100967 0.0144852 0)
(0.101868 0.021154 0)
(0.103068 0.0283881 0)
(0.104608 0.0361416 0)
(0.106549 0.04432 0)
(0.108971 0.0527892 0)
(0.111992 0.0613854 0)
(0.115748 0.0699044 0)
(0.120521 0.0780929 0)
(0.126497 0.0854907 0)
(0.134412 0.0916314 0)
(0.143935 0.0944748 0)
(0.156638 0.0934296 0)
(0.167348 0.0819531 0)
(0.171149 0.0696354 0)
(0.172038 0.0550311 0)
(0.168999 0.0411769 0)
(0.16473 0.0286909 0)
(0.159711 0.0178252 0)
(0.154588 0.00847337 0)
(0.149622 0.000515559 0)
(0.145 -0.00617431 0)
(0.140841 -0.0116803 0)
(0.137198 -0.0160488 0)
(0.134199 -0.0191936 0)
(0.131859 -0.0210432 0)
(0.130659 -0.02129 0)
(0.130781 -0.0208704 0)
(0.131744 -0.0203959 0)
(0.133009 -0.0205541 0)
(0.133901 -0.0216185 0)
(0.133879 -0.0234567 0)
(0.133089 -0.0253894 0)
(0.131605 -0.0275693 0)
(0.129573 -0.0295198 0)
(0.127239 -0.0310415 0)
(0.124791 -0.032062 0)
(0.122356 -0.0325706 0)
(0.120022 -0.0326039 0)
(0.117841 -0.0322225 0)
(0.115841 -0.0314995 0)
(0.11403 -0.0305123 0)
(0.112413 -0.0293421 0)
(0.110962 -0.0280685 0)
(0.109701 -0.0267853 0)
(0.108503 -0.0255698 0)
(0.107612 -0.0245764 0)
(0.106266 -0.0238246 0)
(0.100021 0.00257622 0)
(0.100408 0.00803624 0)
(0.101138 0.0139698 0)
(0.102179 0.0204473 0)
(0.103552 0.0274717 0)
(0.105297 0.0349818 0)
(0.107484 0.0428699 0)
(0.110198 0.0509863 0)
(0.113558 0.0591475 0)
(0.117695 0.0671152 0)
(0.122841 0.074593 0)
(0.129089 0.0811505 0)
(0.13703 0.0861276 0)
(0.146181 0.0880752 0)
(0.157095 0.08652 0)
(0.166353 0.077804 0)
(0.171312 0.0673326 0)
(0.173623 0.0552724 0)
(0.172678 0.0428025 0)
(0.170098 0.0311233 0)
(0.166453 0.0206344 0)
(0.162353 0.011382 0)
(0.15812 0.00335212 0)
(0.153989 -0.00351681 0)
(0.150112 -0.00927265 0)
(0.146574 -0.0139405 0)
(0.143498 -0.0174533 0)
(0.140942 -0.0197675 0)
(0.139238 -0.0207053 0)
(0.138563 -0.0208786 0)
(0.138636 -0.020779 0)
(0.139092 -0.0209745 0)
(0.139407 -0.0217745 0)
(0.139135 -0.0230988 0)
(0.13823 -0.0246849 0)
(0.136757 -0.0264731 0)
(0.134747 -0.0281583 0)
(0.132415 -0.0295384 0)
(0.129925 -0.030513 0)
(0.127408 -0.0310457 0)
(0.124958 -0.0311496 0)
(0.122636 -0.030867 0)
(0.120483 -0.0302573 0)
(0.118511 -0.0293883 0)
(0.116735 -0.028334 0)
(0.115129 -0.0271689 0)
(0.113728 -0.0259824 0)
(0.112392 -0.0248498 0)
(0.111396 -0.0239183 0)
(0.109891 -0.0232131 0)
(0.100024 0.00243665 0)
(0.100463 0.00766018 0)
(0.101286 0.0133819 0)
(0.10245 0.0196485 0)
(0.103975 0.0264441 0)
(0.105903 0.0336897 0)
(0.108307 0.0412633 0)
(0.111276 0.0490013 0)
(0.114922 0.0567012 0)
(0.119355 0.0641186 0)
(0.124744 0.0709626 0)
(0.131211 0.0766984 0)
(0.139034 0.080836 0)
(0.147771 0.082191 0)
(0.157475 0.0804782 0)
(0.165915 0.0735534 0)
(0.171351 0.0647713 0)
(0.174587 0.054449 0)
(0.175314 0.0433433 0)
(0.174162 0.0326334 0)
(0.171805 0.0226937 0)
(0.168748 0.0137155 0)
(0.165318 0.0057721 0)
(0.161767 -0.00113662 0)
(0.15827 -0.00701977 0)
(0.154936 -0.0118775 0)
(0.151893 -0.015655 0)
(0.149232 -0.0183225 0)
(0.1472 -0.0197819 0)
(0.145958 -0.0204449 0)
(0.145358 -0.0206921 0)
(0.145149 -0.0209917 0)
(0.144933 -0.021625 0)
(0.14435 -0.0226614 0)
(0.1433 -0.0239069 0)
(0.141762 -0.0253675 0)
(0.139745 -0.0267968 0)
(0.137403 -0.0280209 0)
(0.134877 -0.0289282 0)
(0.132292 -0.0294637 0)