/*--------------------------------*- C++ -*----------------------------------*\
| =========                 |                                                 |
| \\      /  F ield         | OpenFOAM: The Open Source CFD Toolbox           |
|  \\    /   O peration     | Version:  v1906                                 |
|   \\  /    A nd           | Web:      www.OpenFOAM.com                      |
|    \\/     M anipulation  |                                                 |
\*---------------------------------------------------------------------------*/
FoamFile
{
    version     2.0;
    format      ascii;
    class       volScalarField;
    location    "2500/baffle3DRegion";
    object      T;
}
// * * * * * * * * * * * * * * * * * * * * * * * * * * * * * * * * * * * * * //

dimensions      [0 0 0 1 0 0 0];


internalField   nonuniform List<scalar> 
800
(
375.155
381.73
388.034
394.065
399.824
405.311
410.526
415.47
420.141
424.54
428.667
432.522
436.106
439.417
442.457
445.224
447.72
449.943
451.895
453.575
454.983
456.119
456.983
457.576
457.896
457.945
457.722
457.227
456.46
455.421
454.11
452.528
450.674
448.547
446.149
443.479
440.538
437.324
433.838
430.081
426.052
421.75
417.177
412.332
407.215
401.826
396.165
390.232
384.028
377.551
375.222
381.785
388.077
394.097
399.846
405.322
410.527
415.46
420.121
424.511
428.628
432.475
436.049
439.352
442.383
445.143
447.631
449.848
451.793
453.467
454.869
456
456.859
457.447
457.764
457.809
457.583
457.086
456.317
455.278
453.967
452.385
450.532
448.407
446.012
443.346
440.409
437.201
433.722
429.972
425.951
421.66
417.097
412.265
407.161
401.787
396.143
390.228
384.043
377.587
375.168
381.701
387.962
393.951
399.669
405.115
410.289
415.192
419.822
424.182
428.269
432.085
435.629
438.902
441.903
444.633
447.09
449.277
451.191
452.834
454.206
455.306
456.135
456.692
456.977
456.991
456.734
456.205
455.405
454.333
452.99
451.375
449.489
447.332
444.904
442.204
439.232
435.99
432.476
428.691
424.634
420.307
415.708
410.838
405.697
400.285
394.602
388.647
382.422
375.925
374.882
381.373
387.592
393.539
399.215
404.62
409.753
414.614
419.203
423.521
427.568
431.342
434.845
438.077
441.036
443.724
446.14
448.284
450.157
451.758
453.087
454.144
454.929
455.442
455.684
455.654
455.351
454.777
453.931
452.813
451.422
449.76
447.826
445.619
443.14
440.39
437.367
434.072
430.504
426.665
422.553
418.168
413.512
408.582
403.381
397.907
392.16
386.141
379.85
373.285
374.175
380.63
386.814
392.728
398.371
403.743
408.845
413.675
418.235
422.524
426.542
430.289
433.765
436.969
439.902
442.564
444.955
447.074
448.922
450.498
451.802
452.836
453.597
454.087
454.305
454.251
453.925
453.328
452.458
451.317
449.904
448.218
446.261
444.031
441.53
438.756
435.71
432.391
428.801
424.938
420.802
416.395
411.714
406.762
401.537
396.039
390.268
384.225
377.909
371.321
371.869
378.37
384.599
390.555
396.238
401.65
406.788
411.654
416.248
420.569
424.618
428.395
431.899
435.131
438.091
440.778
443.193
445.335
447.206
448.804
450.129
451.183
451.964
452.473
452.709
452.673
452.365
451.785
450.932
449.807
448.41
446.741
444.799
442.585
440.098
437.34
434.309
431.005
427.43
423.582
419.461
415.069
410.404
405.467
400.257
394.775
389.021
382.994
376.696
370.124
370.128
376.646
382.892
388.866
394.567
399.996
405.152
410.037
414.648
418.988
423.055
426.849
430.372
433.622
436.599
439.304
441.737
443.898
445.786
447.402
448.746
449.817
450.616
451.142
451.397
451.379
451.088
450.526
449.691
448.584
447.204
445.552
443.628
441.432
438.963
436.222
433.209
429.923
426.366
422.536
418.433
414.059
409.412
404.493
399.302
393.838
388.102
382.094
375.814
369.261
368.768
375.303
381.564
387.553
393.27
398.714
403.885
408.784
413.411
417.765
421.846
425.655
429.192
432.456
435.448
438.168
440.615
442.789
444.692
446.322
447.68
448.765
449.578
450.119
450.387
450.384
450.108
449.559
448.739
447.646
446.281
444.644
442.734
440.553
438.099
435.373
432.375
429.104
425.562
421.747
417.66
413.301
408.67
403.767
398.591
393.144
387.424
381.432
375.168
368.632
368.004
374.535
380.794
386.781
392.496
397.938
403.109
408.007
412.633
416.987
421.069
424.879
428.417
431.683
434.676
437.398
439.847
442.024
443.93
445.563
446.924
448.013
448.83
449.375
449.648
449.649
449.379
448.836
448.021
446.934
445.575
443.944
442.041
439.867
437.42
434.702
431.711
428.449
424.915
421.109
417.031
412.681
408.059
403.166
398
392.563
386.854
380.873
374.621
368.096
367.359
373.889
380.147
386.132
391.844
397.284
402.451
407.346
411.969
416.32
420.398
424.203
427.737
430.998
433.988
436.705
439.15
441.322
443.223
444.852
446.209
447.294
448.107
448.648
448.917
448.914
448.64
448.093
447.275
446.185
444.824
443.19
441.285
439.108
436.66
433.94
430.948
427.685
424.15
420.344
416.266
411.917
407.296
402.404
397.24
391.805
386.099
380.121
373.872
367.351
367.346
373.833
380.048
385.991
391.663
397.063
402.191
407.047
411.632
415.944
419.986
423.755
427.253
430.479
433.434
436.117
438.528
440.668
442.537
444.134
445.459
446.514
447.296
447.808
448.048
448.017
447.714
447.141
446.296
445.18
443.793
442.134
440.205
438.004
435.533
432.791
429.777
426.493
422.938
419.112
415.015
410.648
406.01
401.101
395.921
390.471
384.75
378.759
372.497
365.965
367.186
373.615
379.773
385.659
391.273
396.615
401.685
406.483
411.009
415.263
419.246
422.957
426.396
429.564
432.46
435.084
437.437
439.519
441.329
442.867
444.134
445.13
445.855
446.308
446.49
446.401
446.041
445.41
444.508
443.334
441.89
440.175
438.189
435.932
433.404
430.606
427.537
424.197
420.586
416.705
412.554
408.132
403.44
398.477
393.244
387.74
381.967
375.923
369.609
363.025
367.119
373.456
379.52
385.311
390.83
396.078
401.053
405.755
410.186
414.345
418.232
421.847
425.19
428.262
431.062
433.59
435.846
437.831
439.544
440.986
442.156
443.055
443.682
444.038
444.123
443.936
443.478
442.749
441.748
440.477
438.934
437.12
435.035
432.679
430.052
427.154
423.985
420.545
416.834
412.852
408.599
404.075
399.281
394.216
388.88
383.273
377.396
371.248
364.829
358.14
367.508
373.684
379.589
385.224
390.588
395.682
400.506
405.059
409.342
413.354
417.096
420.568
423.769
426.7
429.36
431.75
433.87
435.719
437.298
438.605
439.643
440.41
440.906
441.131
441.086
440.77
440.183
439.326
438.197
436.798
435.128
433.186
430.974
428.491
425.736
422.711
419.414
415.846
412.007
407.896
403.514
398.861
393.936
388.74
383.272
377.532
371.521
365.238
358.683
351.857
366.473
372.444
378.154
383.603
388.79
393.715
398.376
402.774
406.908
410.777
414.381
417.72
420.793
423.6
426.141
428.415
430.421
432.16
433.632
434.835
435.77
436.437
436.835
436.964
436.824
436.414
435.735
434.787
433.568
432.08
430.321
428.293
425.994
423.424
420.584
417.473
414.092
410.44
406.516
402.322
397.857
393.121
388.114
382.836
377.287
371.466
365.375
359.013
352.379
345.475
353.765
360.184
366.318
372.168
377.735
383.018
388.018
392.735
397.17
401.324
405.195
408.785
412.094
415.123
417.87
420.337
422.524
424.43
426.057
427.404
428.471
429.259
429.767
429.997
429.947
429.618
429.01
428.123
426.957
425.513
423.79
421.788
419.508
416.949
414.111
410.994
407.6
403.926
399.974
395.743
391.233
386.444
381.377
376.031
370.405
364.501
358.318
351.855
345.113
338.092
)
;

boundaryField
{
    bottom
    {
        type            compressible::thermalBaffle;
        refValue        nonuniform List<scalar> 
16
(
306.108
306.293
306.552
306.692
306.815
306.908
307.048
307.13
307.348
307.454
307.822
307.987
308.608
308.88
310.215
309.677
)
;
        refGradient     uniform 0;
        valueFraction   nonuniform List<scalar> 
16
(
0.0495849
0.0495849
0.0495849
0.0495849
0.049918
0.0521363
0.0538279
0.0552159
0.0560806
0.0567791
0.0567745
0.0566062
0.0564745
0.0549754
0.0553797
0.0760271
)
;
        value           nonuniform List<scalar> 
16
(
371.817
371.868
371.81
371.521
370.814
368.477
366.725
365.358
364.596
363.952
363.961
363.829
363.811
364.279
363.354
350.41
)
;
        Tnbr            T;
        qrNbr           none;
        qr              none;
        thermalInertia  false;
        thicknessLayers 0();
        kappaLayers     0();
        kappaMethod     solidThermo;
        kappa           none;
        alphaAni        none;
    }
    top
    {
        type            compressible::thermalBaffle;
        refValue        nonuniform List<scalar> 
16
(
309.497
309.765
310.147
310.533
310.911
311.345
311.809
312.344
312.945
313.602
314.244
314.158
312.565
309.534
306.881
304.639
)
;
        refGradient     uniform 0;
        valueFraction   nonuniform List<scalar> 
16
(
0.0495849
0.0495849
0.0514421
0.0544766
0.0567903
0.0582148
0.0593953
0.0604752
0.0616133
0.0631828
0.0657621
0.0701287
0.0763576
0.0838607
0.0929631
0.109124
)
;
        value           nonuniform List<scalar> 
16
(
373.956
374.11
372.523
369.865
367.89
366.702
365.848
365.228
364.698
363.955
362.566
359.594
354.659
348.306
341.886
334.441
)
;
        Tnbr            T;
        qrNbr           none;
        qr              none;
        thermalInertia  false;
        thicknessLayers 0();
        kappaLayers     0();
        kappaMethod     solidThermo;
        kappa           none;
        alphaAni        none;
    }
    side
    {
        type            zeroGradient;
    }
}


// ************************************************************************* //
