/*--------------------------------*- C++ -*----------------------------------*\
| =========                 |                                                 |
| \\      /  F ield         | OpenFOAM: The Open Source CFD Toolbox           |
|  \\    /   O peration     | Version:  v1906                                 |
|   \\  /    A nd           | Web:      www.OpenFOAM.com                      |
|    \\/     M anipulation  |                                                 |
\*---------------------------------------------------------------------------*/
FoamFile
{
    version     2.0;
    format      ascii;
    class       volScalarField;
    location    "2000";
    object      alphat;
}
// * * * * * * * * * * * * * * * * * * * * * * * * * * * * * * * * * * * * * //

dimensions      [1 -1 -1 0 0 0 0];


internalField   nonuniform List<scalar> 
2000
(
0.000512608
0.000370204
0.00031553
0.000287445
0.00026876
0.000253256
0.000239126
0.000225535
0.000212027
0.000198292
0.00018435
0.000169582
0.000150624
0.000120506
9.21905e-05
4.64453e-05
5.6662e-05
6.76592e-05
7.64392e-05
8.30504e-05
8.87759e-05
9.23207e-05
9.42137e-05
9.44853e-05
9.3621e-05
9.03929e-05
8.24768e-05
7.17945e-05
6.55545e-05
5.74132e-05
6.41058e-05
7.50648e-05
8.42015e-05
9.16154e-05
9.76886e-05
0.000103017
0.000107113
0.000110399
0.000112992
0.000115036
0.000116618
0.000117844
0.000118783
0.000119508
0.00012008
0.000120558
0.000121033
0.000121468
0.000122293
0.000123628
0.0100598
0.00431707
0.00340404
0.00305927
0.00282825
0.00263362
0.00245837
0.00229678
0.00214462
0.00199883
0.00185255
0.00169189
0.00148182
0.00103732
0.000190716
7.64848e-05
0.000340386
0.000475908
0.000611516
0.000725806
0.000817564
0.000885765
0.000925834
0.000929665
0.000888701
0.000795309
0.000638354
0.000416986
9.6465e-05
8.42373e-05
0.000274882
0.000398851
0.000537164
0.000663777
0.000771111
0.000863043
0.000939142
0.00100169
0.00105476
0.00109854
0.00113497
0.00116506
0.00119015
0.0012113
0.00122961
0.00124628
0.00126251
0.00127979
0.00129803
0.00131253
0.0365398
0.0136857
0.00938234
0.00776666
0.00686299
0.00621763
0.00569997
0.00525094
0.00483906
0.00444097
0.00402732
0.00354727
0.00288767
0.00177522
0.000236013
9.60686e-05
0.000664338
0.000965991
0.00121072
0.00141156
0.0015716
0.00168
0.00172436
0.00170682
0.00160658
0.00141653
0.00112633
0.000746071
0.000110209
0.000100976
0.000585711
0.000841251
0.00109572
0.00132744
0.00153417
0.00171974
0.00188181
0.00202096
0.00214099
0.00224303
0.00232973
0.00240304
0.00246517
0.00251803
0.00256353
0.00260353
0.00263969
0.0026733
0.00270293
0.00272129
0.059995
0.0265819
0.0174008
0.0136843
0.0116648
0.0103061
0.0092801
0.00842384
0.00765611
0.0069196
0.00615319
0.00526521
0.00408982
0.00234638
0.00026983
0.000110607
0.000891393
0.00136643
0.0017012
0.00196296
0.00215888
0.0022818
0.00230823
0.00226008
0.00210152
0.00183112
0.00144287
0.000926743
0.00011955
0.000114412
0.000830565
0.00122783
0.00158065
0.00190061
0.00219233
0.00245799
0.00269564
0.00290526
0.00308929
0.00324929
0.00338783
0.00350722
0.00360992
0.00369816
0.00377406
0.00383948
0.00389604
0.00394406
0.00398138
0.00400088
0.0741558
0.0395801
0.0264058
0.0203611
0.0169732
0.0147371
0.0130656
0.0117083
0.0105096
0.00936925
0.00818974
0.00684238
0.00513057
0.00280651
0.000297777
0.000121835
0.00105151
0.0016792
0.00209344
0.00239792
0.00261786
0.00274716
0.002759
0.0026787
0.00246428
0.00211558
0.00163023
0.00100721
0.000126632
0.000124544
0.000999575
0.00154141
0.00198046
0.00237451
0.00273682
0.00307027
0.00337364
0.00364638
0.00388966
0.00410484
0.00429407
0.00445955
0.0046036
0.00472835
0.00483571
0.00492729
0.00500407
0.00506576
0.00510996
0.00513053
0.0825238
0.0507662
0.0353546
0.0273071
0.022539
0.019344
0.0169686
0.0150387
0.0133545
0.0117622
0.0101278
0.00829265
0.00605266
0.00319208
0.00032045
0.000130967
0.00116966
0.00192253
0.00240272
0.00274396
0.00298292
0.00311718
0.00311768
0.00300876
0.00274414
0.00232404
0.00174498
0.00103609
0.000130708
0.000132275
0.00112441
0.00177594
0.00229415
0.00275153
0.00317349
0.00356555
0.00392714
0.00425709
0.00455548
0.00482305
0.00506133
0.00527213
0.00545728
0.00561861
0.00575764
0.0058755
0.00597254
0.0060479
0.00609916
0.00612155
0.0877638
0.0597481
0.0435682
0.0340902
0.0281085
0.0239805
0.0208777
0.0183556
0.0161486
0.0140738
0.0119596
0.00962815
0.00687316
0.0035176
0.000339519
0.000138813
0.00126413
0.00211276
0.00265028
0.00302514
0.00328446
0.00342848
0.00342517
0.00329493
0.00298885
0.00250323
0.00183528
0.00103422
0.000134135
0.000138149
0.00120244
0.00193703
0.0025228
0.00303502
0.00350899
0.00395324
0.00436775
0.00475064
0.00510098
0.00541866
0.00570442
0.00595947
0.00618513
0.00638273
0.00655334
0.00669752
0.00681506
0.00690447
0.00696349
0.00698838
0.0912555
0.0667765
0.0507469
0.0404092
0.033468
0.0285046
0.024704
0.0215879
0.0188534
0.0162817
0.0136791
0.0108522
0.00760083
0.00379746
0.000356213
0.000145757
0.00133985
0.00226266
0.00285015
0.00325935
0.00354454
0.00370689
0.00371156
0.00356826
0.00323279
0.00268931
0.00193508
0.00102618
0.000137218
0.000142446
0.00123445
0.00202875
0.00266853
0.00322882
0.00374945
0.00424181
0.00470595
0.00513887
0.00553878
0.00590464
0.00623644
0.00653469
0.00680019
0.00703368
0.00723568
0.00740618
0.00754443
0.00764845
0.00771608
0.00774403
0.0937022
0.0722444
0.0568419
0.0460985
0.0384647
0.032801
0.028366
0.0246833
0.0214311
0.0183674
0.0152815
0.0119725
0.00825216
0.00404041
0.000371189
0.00015197
0.00139792
0.00238052
0.00301243
0.00345956
0.00377876
0.00396947
0.00399445
0.00385203
0.00349806
0.00290612
0.00206944
0.0010424
0.000140488
0.000145268
0.0012192
0.00205439
0.00273729
0.00333849
0.00390247
0.00444037
0.00495136
0.00543237
0.00587997
0.00629233
0.00666883
0.00700929
0.00731386
0.00758274
0.00781584
0.00801264
0.00817186
0.00829111
0.00836807
0.00839942
0.0954826
0.0765098
0.0619309
0.0510978
0.0430072
0.0367877
0.0318008
0.027598
0.0238554
0.020319
0.016768
0.0129996
0.00884072
0.00425597
0.000384856
0.000157583
0.00144075
0.00247123
0.0031443
0.00363555
0.00399846
0.00422732
0.00428703
0.00415796
0.00379577
0.00316686
0.00225231
0.00109576
0.000145312
0.000146233
0.00116449
0.00201818
0.00273136
0.0033701
0.0039761
0.00455878
0.00511572
0.00564217
0.0061347
0.00659215
0.00701188
0.0073933
0.007736
0.00803957
0.00830338
0.00852637
0.00870678
0.00884197
0.00892882
0.00896386
0.0968143
0.0798565
0.0661393
0.055415
0.047055
0.040415
0.0349657
0.0303016
0.0261091
0.0221322
0.0181457
0.0139481
0.00938229
0.00445446
0.000397651
0.000162654
0.00147163
0.00253734
0.00325176
0.00379601
0.00421292
0.00448964
0.00459347
0.00448912
0.00413289
0.00347777
0.00249053
0.00119347
0.000153684
0.000145927
0.00108129
0.00192621
0.00266081
0.00333468
0.00398244
0.00460894
0.0052099
0.00578008
0.00631559
0.00681409
0.00727501
0.00769572
0.00807521
0.0084125
0.00870639
0.00895531
0.00915699
0.00930833
0.00940561
0.00944521
0.0978301
0.0824976
0.0695993
0.0590949
0.0506041
0.0436608
0.0378373
0.0327768
0.028185
0.0238103
0.0194275
0.0148375
0.00989677
0.00464797
0.000410125
0.000167501
0.00149803
0.00258015
0.0033424
0.00395089
0.0044308
0.0047629
0.00491452
0.00484556
0.00450781
0.00384133
0.00278984
0.00134419
0.000168982
0.000143911
0.00095309
0.00177982
0.00253927
0.00324964
0.00393937
0.00460748
0.00524862
0.00585813
0.00643238
0.00696906
0.00746723
0.0079248
0.00833917
0.00870881
0.00903185
0.00930623
0.00952907
0.00969673
0.00980485
0.00984953
0.0986155
0.0845913
0.0724313
0.0621988
0.0536734
0.046523
0.0404071
0.0350177
0.0300838
0.025363
0.0206326
0.0156947
0.0104119
0.00485464
0.000422863
0.000171904
0.00151305
0.00260549
0.00343037
0.00411421
0.00466175
0.0050509
0.0052515
0.00522403
0.0049163
0.00425563
0.00315811
0.00157069
0.000191653
0.000142131
0.000784476
0.0016007
0.00239296
0.00314387
0.00387311
0.00457646
0.00524987
0.00589105
0.00649719
0.00706667
0.00759746
0.00808836
0.00853491
0.00893496
0.00928577
0.00958487
0.0098286
0.0100126
0.0101319
0.010182
0.0992276
0.0862536
0.0747376
0.0647907
0.0562938
0.0490124
0.0426778
0.0370263
0.0318121
0.0268047
0.0217857
0.0165555
0.0109694
0.00510137
0.000436712
0.000176937
0.00149387
0.00263171
0.00354215
0.00430684
0.00491873
0.00535905
0.00560471
0.00561962
0.00535182
0.00471602
0.00359974
0.00189792
0.000219554
0.000134193
0.000623562
0.00143818
0.00227031
0.00306191
0.00381941
0.00454332
0.00523463
0.00589525
0.0065229
0.00711695
0.00767485
0.00819392
0.00866891
0.00909681
0.00947343
0.00979623
0.0100603
0.0102606
0.0103911
0.0104469
0.0997055
0.0875703
0.0766019
0.0669304
0.0585004
0.051147
0.044658
0.0388092
0.0333792
0.0281517
0.0229147
0.0174647
0.0116415
0.00546736
0.000452851
0.000181913
0.0014547
0.00270867
0.00372142
0.004558
0.00521834
0.00569586
0.0059754
0.00602836
0.00580492
0.00521563
0.0041141
0.00231444
0.000253644
0.000134746
0.000544966
0.00140303
0.00225756
0.00306415
0.00382056
0.00453835
0.00522504
0.00588786
0.00652262
0.00713036
0.00770696
0.00824647
0.00874506
0.00919753
0.00959933
0.00994467
0.0102284
0.0104445
0.0105864
0.0106481
0.100077
0.0886041
0.07809
0.0686697
0.060327
0.0529463
0.0463589
0.0403739
0.0347935
0.0294177
0.0240455
0.0184765
0.0125276
0.00611947
0.000472763
0.000260353
0.00156539
0.00294825
0.00403586
0.00490533
0.00558224
0.00607119
0.00636595
0.00644864
0.00626472
0.00574641
0.00471745
0.00284534
0.0003148
0.000207031
0.000710915
0.00162172
0.00245724
0.00321097
0.00391493
0.00458841
0.00524312
0.00588406
0.00650858
0.0071169
0.00770106
0.00825432
0.00877098
0.00924399
0.00966713
0.0100328
0.0103349
0.0105664
0.0107193
0.0107874
0.10036
0.0894003
0.0792526
0.0700507
0.061803
0.054428
0.0477901
0.0417259
0.0360593
0.0306089
0.0251919
0.0196314
0.0137861
0.00764689
0.00178565
0.00152247
0.00241208
0.0035493
0.00456505
0.00538837
0.00603154
0.00649614
0.00678279
0.00687462
0.00672985
0.00628916
0.00542481
0.00394852
0.00181965
0.00158002
0.00185556
0.00236006
0.00293818
0.00352988
0.0041204
0.00470797
0.00530015
0.00589652
0.00649323
0.00708517
0.00766534
0.00822363
0.00875188
0.00924049
0.00968108
0.010065
0.0103843
0.0106305
0.0107945
0.0108686
0.100568
0.0899913
0.0801264
0.0711052
0.0629511
0.0556058
0.0489578
0.0428659
0.0371735
0.0317189
0.0263426
0.0209029
0.0153169
0.00967567
0.00440412
0.00346121
0.00386925
0.00459311
0.00535903
0.0060331
0.00657686
0.0069773
0.00722665
0.00730834
0.00718946
0.00681711
0.00612785
0.00500598
0.00353237
0.0030198
0.00301666
0.00323418
0.00357025
0.00397359
0.0044215
0.00489324
0.00539957
0.00593107
0.00648189
0.007044
0.00760696
0.00816024
0.00869252
0.00919119
0.00964548
0.010045
0.0103798
0.0106398
0.0108144
0.0108941
0.100711
0.0903986
0.0807367
0.0718552
0.0637865
0.0564873
0.0498631
0.043789
0.0381253
0.0327288
0.0274644
0.0222249
0.0169753
0.0118525
0.00732051
0.00580554
0.00560926
0.00590968
0.00636108
0.00681944
0.00721444
0.00751342
0.00769767
0.00774791
0.00763636
0.00732357
0.0067651
0.00592262
0.00489281
0.00428701
0.00408919
0.00409922
0.00424112
0.00447356
0.00477452
0.00513236
0.00553523
0.00598757
0.00647788
0.00699669
0.00753184
0.0080694
0.00859715
0.0090998
0.00956347
0.00997544
0.0103238
0.0105967
0.0107814
0.0108668
0.100792
0.0906347
0.0810982
0.0723128
0.0643163
0.057074
0.0505013
0.0444844
0.0388965
0.0336102
0.0285113
0.0235208
0.0186345
0.0140024
0.010063
0.00818514
0.00747625
0.00735198
0.00748668
0.00770374
0.00792147
0.008093
0.00818996
0.00818935
0.0080659
0.00778951
0.00733042
0.00667834
0.00591926
0.00532788
0.00502129
0.00488985
0.00488558
0.00497772
0.00514902
0.00539058
0.00569729
0.00606073
0.0064807
0.00694534
0.00744207
0.00795567
0.00846972
0.00896961
0.00943793
0.00985906
0.0102188
0.0105032
0.0106976
0.0107887
0.100815
0.0907047
0.0812158
0.0724809
0.06454
0.0573608
0.0508622
0.0449362
0.0394637
0.0343288
0.0294332
0.024717
0.0201909
0.0159954
0.0124882
0.0104351
0.00929214
0.00882515
0.00865619
0.0086348
0.00866584
0.00869649
0.00869177
0.00862536
0.00847301
0.00821021
0.00781623
0.00728925
0.00668737
0.00616046
0.00579917
0.00557702
0.00546722
0.00544994
0.00551323
0.0056513
0.00586201
0.00614383
0.00648677
0.00688983
0.00733935
0.00782042
0.00831477
0.00880371
0.00927145
0.00969815
0.0100668
0.0103614
0.0105648
0.0106616
0.100779
0.0906065
0.0810861
0.0723542
0.0644497
0.0573368
0.0509311
0.0451246
0.0398002
0.0348488
0.0301818
0.0257493
0.0215654
0.0177465
0.0145563
0.0124142
0.0110065
0.010244
0.0098098
0.00956243
0.0094121
0.00929958
0.00918678
0.00904524
0.0088511
0.00858303
0.00822499
0.00777635
0.00727374
0.00680154
0.00642461
0.0061493
0.00596688
0.00586743
0.00584434
0.00589479
0.00601936
0.00621906
0.0064931
0.00682828
0.00722391
0.0076654
0.00813296
0.00860662
0.00906648
0.00949488
0.00986996
0.0101731
0.010385
0.0104873
0.100679
0.0903306
0.0806956
0.0719174
0.0640294
0.0569853
0.0506907
0.0450281
0.039879
0.0351359
0.0307135
0.0265656
0.0227008
0.0192058
0.0162615
0.0140974
0.0125329
0.0115433
0.0108881
0.0104434
0.0101252
0.00987603
0.00965594
0.00943564
0.00919164
0.00890444
0.00856007
0.00815681
0.0077157
0.00728534
0.00691006
0.00660627
0.00637603
0.00621695
0.00612692
0.00610582
0.00615627
0.00628158
0.00648385
0.00676107
0.00709454
0.0074916
0.00792615
0.00837862
0.00882714
0.00925144
0.00963001
0.00994011
0.0101598
0.0102676
0.10051
0.0898603
0.0800229
0.0711479
0.063257
0.0562845
0.0501167
0.0446222
0.0396735
0.0351585
0.0309929
0.027127
0.0235592
0.0203472
0.0176091
0.015471
0.0138238
0.0126742
0.011846
0.0112371
0.0107729
0.0103999
0.0100791
0.00978161
0.00948447
0.00916941
0.00882341
0.00844249
0.00803822
0.00763757
0.00727015
0.00695279
0.00669248
0.00649156
0.00635117
0.00627332
0.00626204
0.0063223
0.0064587
0.00667283
0.00695379
0.00729973
0.00769563
0.00812149
0.00855441
0.00897097
0.00934888
0.00966419
0.00989103
0.0100044
0.100262
0.0891704
0.0790363
0.0700142
0.0621046
0.0552103
0.0491883
0.0438853
0.0391593
0.0348906
0.0309891
0.0274014
0.0241139
0.0211593
0.0186068
0.016529
0.0148533
0.0136028
0.0126487
0.0119109
0.0113263
0.0108468
0.0104366
0.0100676
0.00971837
0.00937144
0.00901433
0.00864136
0.00825701
0.00787645
0.00751794
0.00719548
0.00691744
0.00668829
0.00651121
0.00638961
0.00632841
0.00633347
0.00641094
0.00656508
0.00679561
0.00708887
0.00744208
0.0078366
0.00824905
0.00865497
0.00902961
0.00934708
0.00958017
0.00969987
0.0999205
0.0882254
0.0776931
0.0684766
0.0605392
0.0537364
0.0478837
0.0427978
0.0383173
0.0343113
0.0306819
0.0273706
0.0243513
0.0216361
0.0192637
0.0172702
0.0156085
0.0143066
0.0132701
0.0124387
0.0117608
0.0111952
0.0107097
0.0102786
0.00988171
0.00950293
0.00913015
0.00875648
0.00838212
0.00801424
0.00766387
0.00734111
0.00705365
0.00680653
0.0066038
0.00644957
0.00634922
0.00630876
0.00633543
0.00643543
0.00661217
0.00686198
0.00716549
0.00752521
0.00791269
0.00830382
0.00867216
0.00898999
0.00922791
0.0093531
0.0994655
0.086977
0.0759384
0.0664869
0.0585238
0.0518361
0.0461835
0.0413443
0.0371337
0.0334076
0.0300616
0.0270237
0.0242654
0.0217805
0.0195858
0.0176974
0.0160856
0.0147722
0.0136918
0.0128002
0.0120564
0.0114263
0.0108817
0.0104001
0.009963
0.00955569
0.0091666
0.00878821
0.00841779
0.00805806
0.00771494
0.00739509
0.00710409
0.00684677
0.00662726
0.00644975
0.00631932
0.00624279
0.00622704
0.00627947
0.00640571
0.00660729
0.00686963
0.00718859
0.00754688
0.00791913
0.00827795
0.00859392
0.00883525
0.00896543
0.0988691
0.0853603
0.0737028
0.063989
0.0560201
0.0494857
0.0440732
0.0395153
0.0356011
0.0321725
0.029117
0.0263598
0.0238566
0.0215982
0.0195843
0.0178136
0.0162856
0.0149924
0.0139012
0.0129803
0.0121971
0.0115243
0.0109381
0.0104191
0.00995132
0.00952125
0.0091183
0.00873479
0.00836652
0.00801304
0.00767678
0.00736153
0.00707122
0.00680968
0.0065806
0.00638789
0.00623626
0.00613181
0.00608158
0.00609329
0.00617398
0.00632762
0.00655229
0.00682666
0.00715291
0.00750241
0.00784827
0.00815984
0.0084031
0.00853781
0.0980916
0.0832882
0.0709006
0.0609211
0.0529918
0.0466673
0.041546
0.0373094
0.0337201
0.0306073
0.0278523
0.0253766
0.0231335
0.0210986
0.0192689
0.0176341
0.0162034
0.014962
0.013892
0.0129692
0.012171
0.0114765
0.0108662
0.0103243
0.00983659
0.00939155
0.00897957
0.00859319
0.00822749
0.00788026
0.00755159
0.00724309
0.00695709
0.0066963
0.00646363
0.00626244
0.00609685
0.00597224
0.00589518
0.00587326
0.00591421
0.00602405
0.00620541
0.00644329
0.00673222
0.00705503
0.00738431
0.0076887
0.00793222
0.00807098
0.0970755
0.0806433
0.0674285
0.0572189
0.0494092
0.0433736
0.0386061
0.0347353
0.0315004
0.0287212
0.0262763
0.0240856
0.0220999
0.0202928
0.018651
0.0171699
0.0158488
0.0146821
0.0136571
0.0127583
0.0119687
0.0112724
0.0106557
0.0101052
0.00960954
0.00915866
0.0087442
0.00835926
0.00799874
0.00765949
0.00734017
0.00704084
0.00676248
0.00650671
0.00627561
0.00607183
0.00589878
0.00576101
0.00566433
0.00561583
0.00562328
0.00569387
0.00583223
0.0060361
0.00628476
0.00657809
0.00688715
0.00718127
0.00742314
0.00756542
0.0957354
0.0772677
0.0631666
0.0528237
0.0452578
0.0396138
0.0352721
0.0318139
0.0289616
0.0265318
0.0244044
0.0225015
0.0207734
0.0191923
0.0177455
0.0164256
0.0152319
0.0141583
0.0131987
0.0123435
0.0115825
0.0109041
0.0102978
0.00975343
0.00926195
0.00881518
0.00840604
0.00802835
0.0076772
0.00734911
0.00704191
0.00675464
0.00648727
0.00624049
0.00601559
0.00581446
0.00563975
0.00549517
0.00538563
0.00531739
0.00529782
0.00533454
0.00543382
0.00559837
0.00581381
0.00607269
0.00635764
0.00663808
0.00687606
0.00702117
0.0939383
0.0729483
0.0579849
0.0476947
0.0405486
0.0354196
0.0315807
0.0285794
0.0261337
0.0240645
0.0222584
0.0206435
0.0191703
0.0178167
0.0165665
0.0154133
0.0143555
0.0133902
0.0125143
0.0117226
0.0110087
0.0103654
0.00978543
0.0092614
0.00878645
0.0083542
0.00795899
0.00759542
0.00725904
0.00694639
0.00665496
0.00638321
0.00613039
0.00589647
0.00568204
0.00548832
0.00531723
0.00517163
0.0050555
0.00497412
0.00493409
0.00494283
0.00500747
0.00513282
0.005317
0.00553835
0.0057961
0.00605921
0.00629062
0.00643764
0.0914671
0.0674036
0.0517621
0.041831
0.0353314
0.0308525
0.0275889
0.0250804
0.0230569
0.0213519
0.0198652
0.0185332
0.0173131
0.0161829
0.0151291
0.014146
0.013232
0.0123863
0.011608
0.010895
0.0102443
0.00965176
0.00911285
0.0086227
0.00817639
0.00776921
0.00739699
0.00705515
0.00673975
0.00644769
0.00617642
0.00592413
0.00568967
0.00547249
0.00527265
0.00509077
0.00492814
0.00478683
0.00466992
0.00458168
0.00452768
0.00451468
0.00454993
0.0046397
0.0047873
0.00497746
0.00520252
0.00544407
0.00566567
0.00581332
0.0879442
0.0602787
0.0444272
0.0353023
0.0297092
0.026008
0.0233753
0.0213789
0.0197804
0.018432
0.0172575
0.0161987
0.0152225
0.0143095
0.0134492
0.0126367
0.0118711
0.011153
0.010483
0.00986145
0.00928746
0.00875946
0.00827511
0.00783157
0.00742561
0.00705393
0.00671391
0.00640179
0.00611418
0.00584843
0.00560225
0.00537381
0.00516177
0.0049653
0.00478406
0.00461823
0.00446855
0.00433643
0.00422412
0.00413489
0.00407323
0.0040449
0.00405662
0.00411519
0.00422576
0.00438692
0.00457464
0.00479094
0.00499883
0.00514528
0.0826679
0.0511866
0.0360389
0.0282868
0.023849
0.0210161
0.0190372
0.0175479
0.0163578
0.0153526
0.0144701
0.0136685
0.0129223
0.0122166
0.0115431
0.0108986
0.0102828
0.00969712
0.00914337
0.00862307
0.00813711
0.0076856
0.00726788
0.00688268
0.00652813
0.00620211
0.00590336
0.00562909
0.00537631
0.00514298
0.00492718
0.00472727
0.00454192
0.00437019
0.0042115
0.00406573
0.00393321
0.00381481
0.00371206
0.00362733
0.00356403
0.00352673
0.00352117
0.00355386
0.00363104
0.00375702
0.00391273
0.00409697
0.00428595
0.00442842
0.0742604
0.0398853
0.0269096
0.0211009
0.0179804
0.016035
0.0146838
0.0136702
0.0128534
0.0121581
0.0115408
0.0109735
0.0104385
0.00992537
0.00942854
0.00894594
0.008478
0.00802647
0.0075937
0.00718194
0.00679296
0.00642793
0.00608733
0.005771
0.00547809
0.00520725
0.00495854
0.00473
0.00451911
0.0043244
0.00414442
0.00397786
0.00382356
0.0036806
0.00354834
0.00342648
0.00331506
0.00321454
0.00312589
0.00305071
0.00299138
0.0029513
0.00293488
0.00294772
0.00299597
0.00308553
0.00321126
0.00335596
0.00352042
0.0036548
0.0600588
0.0267777
0.0177346
0.0141939
0.0123747
0.0112315
0.0104376
0.00982934
0.00933124
0.00890067
0.00851208
0.008149
0.00780081
0.00746109
0.00712651
0.00679603
0.00647038
0.00615134
0.0058412
0.00554228
0.00525663
0.00498585
0.00473094
0.00449245
0.00427015
0.00406308
0.00387245
0.00369691
0.00353455
0.0033844
0.00324555
0.00311708
0.00299809
0.00288783
0.0027857
0.00269135
0.00260467
0.00252584
0.00245541
0.00239434
0.00234414
0.00230711
0.00228619
0.00228569
0.00231063
0.0023655
0.00245745
0.00256084
0.00269235
0.00281185
0.0365655
0.0137897
0.00957369
0.00807326
0.00729884
0.00678892
0.00641457
0.00611757
0.0058671
0.00564519
0.00544033
0.00524476
0.00505325
0.00486259
0.00467112
0.00447843
0.00428519
0.00409275
0.00390286
0.00371735
0.0035379
0.00336595
0.00320252
0.00304839
0.00290362
0.00276716
0.00264107
0.00252447
0.00241619
0.00231573
0.00222267
0.00213651
0.00205667
0.00198262
0.00191395
0.00185033
0.00179161
0.00173783
0.00168923
0.00164632
0.00160987
0.00158126
0.00156193
0.00155488
0.00156324
0.0015884
0.0016423
0.00170361
0.00179163
0.00188513
0.0100622
0.00435933
0.00349207
0.00320149
0.00303414
0.00289901
0.00278558
0.00268958
0.00260484
0.00252732
0.00245388
0.00238213
0.00231033
0.00223741
0.00216276
0.00208621
0.00200805
0.00192889
0.00184951
0.00177081
0.00169359
0.00161866
0.00154655
0.00147785
0.00141263
0.00134942
0.00129026
0.00123517
0.00118362
0.00113554
0.0010909
0.00104951
0.00101114
0.000975523
0.000942437
0.000911707
0.000883233
0.000856975
0.000833009
0.000811499
0.000792681
0.000777203
0.000765219
0.000758565
0.000757795
0.000761267
0.00077913
0.000799101
0.000834001
0.000885253
0.000512579
0.000371074
0.000318761
0.000293959
0.000279373
0.000268863
0.00026056
0.000253708
0.000247794
0.000242555
0.000237768
0.000233259
0.00022888
0.000224522
0.000220105
0.000215571
0.000210892
0.000206062
0.000201095
0.00019602
0.000190872
0.00018569
0.000180517
0.000175393
0.000170346
0.00016539
0.000160591
0.00015596
0.000151494
0.00014719
0.000143056
0.000139093
0.000135305
0.000131689
0.000128242
0.000124963
0.000121849
0.0001189
0.000116117
0.000113506
0.000111078
0.000108842
0.000106847
0.000105049
0.000103688
0.000102546
0.000102005
0.000102123
0.000102329
0.000105044
)
;

boundaryField
{
    floor
    {
        type            compressible::alphatWallFunction;
        Prt             0.85;
        value           nonuniform List<scalar> 
50
(
7.11524e-05
4.8927e-05
4.01139e-05
3.55094e-05
3.24128e-05
2.9821e-05
2.74401e-05
2.51318e-05
2.28183e-05
2.04448e-05
1.80116e-05
1.54058e-05
1.2012e-05
6.4868e-06
0
0
0
0
0
0
4.34562e-07
1.12557e-06
1.49305e-06
1.54575e-06
1.37874e-06
7.51827e-07
0
0
0
0
0
0
0
1.01535e-06
2.19172e-06
3.21599e-06
3.99724e-06
4.62091e-06
5.11119e-06
5.49642e-06
5.79419e-06
6.0245e-06
6.20093e-06
6.33711e-06
6.44456e-06
6.53448e-06
6.62373e-06
6.70406e-06
6.85958e-06
7.11339e-06
)
;
    }
    ceiling
    {
        type            compressible::alphatWallFunction;
        Prt             0.85;
        value           nonuniform List<scalar> 
50
(
7.11478e-05
4.90656e-05
4.064e-05
3.65824e-05
3.41749e-05
3.24298e-05
3.10445e-05
2.98968e-05
2.89028e-05
2.80196e-05
2.72103e-05
2.6446e-05
2.57016e-05
2.4959e-05
2.42043e-05
2.34274e-05
2.26232e-05
2.17905e-05
2.09314e-05
2.00503e-05
1.91533e-05
1.82471e-05
1.73388e-05
1.64353e-05
1.55418e-05
1.46607e-05
1.38039e-05
1.29735e-05
1.21693e-05
1.13911e-05
1.06403e-05
9.91779e-06
9.22407e-06
8.55927e-06
7.92319e-06
7.31565e-06
6.73647e-06
6.18596e-06
5.66463e-06
5.174e-06
4.71633e-06
4.29381e-06
3.91597e-06
3.57527e-06
3.31723e-06
3.10012e-06
3.00322e-06
3.02852e-06
3.0689e-06
3.59331e-06
)
;
    }
    inlet
    {
        type            calculated;
        value           nonuniform List<scalar> 
40
(
0.105877
0.105877
0.105877
0.105877
0.105876
0.105876
0.105876
0.105876
0.105876
0.105876
0.105876
0.105875
0.105875
0.105875
0.105875
0.105875
0.105875
0.105874
0.105874
0.105874
0.105874
0.105874
0.105874
0.105874
0.105873
0.105873
0.105873
0.105873
0.105873
0.105873
0.105873
0.105872
0.105872
0.105872
0.105872
0.105872
0.105872
0.105871
0.105871
0.105871
)
;
    }
    outlet
    {
        type            calculated;
        value           nonuniform List<scalar> 
40
(
0.000123629
0.00131254
0.00272129
0.00400089
0.00513055
0.00612157
0.00698839
0.00774405
0.00839944
0.00896389
0.00944524
0.00984956
0.010182
0.010447
0.0106482
0.0107874
0.0108686
0.0108941
0.0108669
0.0107888
0.0106617
0.0104874
0.0102677
0.0100044
0.00969989
0.00935312
0.00896544
0.00853782
0.00807099
0.00756543
0.00702117
0.00643765
0.00581333
0.00514528
0.00442842
0.0036548
0.00281185
0.00188513
0.000885253
0.000105044
)
;
    }
    fixedWalls
    {
        type            empty;
    }
    baffleFacesThermoBaffle1D_master
    {
        type            compressible::alphatWallFunction;
        Prt             0.85;
        value           nonuniform List<scalar> 
16
(
0
0
1.23104e-06
4.01944e-06
6.13726e-06
7.83783e-06
9.28389e-06
1.05528e-05
1.16805e-05
1.26926e-05
1.36035e-05
1.44687e-05
1.52553e-05
1.61449e-05
1.7034e-05
3.02903e-05
)
;
    }
    baffleFacesThermoBaffle1D_slave
    {
        type            compressible::alphatWallFunction;
        Prt             0.85;
        value           nonuniform List<scalar> 
16
(
5.12712e-06
1.75223e-05
2.51557e-05
3.07725e-05
3.53471e-05
3.90198e-05
4.20842e-05
4.47503e-05
4.71292e-05
4.92904e-05
5.13047e-05
5.32626e-05
5.52505e-05
5.74102e-05
5.9905e-05
6.31242e-05
)
;
    }
    baffleFacesThermoBaffle3D_master
    {
        type            compressible::alphatWallFunction;
        Prt             0.85;
        value           nonuniform List<scalar> 
16
(
0
0
0
1.7406e-06
3.55077e-06
4.92737e-06
5.96905e-06
6.7281e-06
7.22964e-06
7.40836e-06
7.3786e-06
7.06129e-06
6.80339e-06
5.49073e-06
5.71492e-06
1.80404e-05
)
;
    }
    baffleFacesThermoBaffle3D_slave
    {
        type            compressible::alphatWallFunction;
        Prt             0.85;
        value           nonuniform List<scalar> 
16
(
0
0
1.0241e-06
2.70396e-06
3.98681e-06
4.73708e-06
5.3649e-06
5.92781e-06
6.52096e-06
7.38452e-06
8.86383e-06
1.15093e-05
1.53311e-05
1.99452e-05
2.55618e-05
3.5457e-05
)
;
    }
}


// ************************************************************************* //
