/*--------------------------------*- C++ -*----------------------------------*\
| =========                 |                                                 |
| \\      /  F ield         | OpenFOAM: The Open Source CFD Toolbox           |
|  \\    /   O peration     | Version:  v1906                                 |
|   \\  /    A nd           | Web:      www.OpenFOAM.com                      |
|    \\/     M anipulation  |                                                 |
\*---------------------------------------------------------------------------*/
FoamFile
{
    version     2.0;
    format      ascii;
    class       volScalarField;
    location    "2000";
    object      epsilon;
}
// * * * * * * * * * * * * * * * * * * * * * * * * * * * * * * * * * * * * * //

dimensions      [0 2 -3 0 0 0 0];


internalField   nonuniform List<scalar> 
2000
(
1.91876
0.722765
0.447523
0.338369
0.276612
0.231484
0.194905
0.163585
0.135999
0.111365
0.0896679
0.0700511
0.0493915
0.025593
0.00515297
0.000663892
0.00271208
0.00461475
0.0066561
0.00854235
0.0104433
0.0117595
0.0125171
0.0126488
0.0123323
0.0111231
0.00847881
0.00559659
0.00191408
0.00126231
0.00387091
0.00621867
0.00877594
0.011305
0.0136962
0.0160577
0.0180404
0.019743
0.0211571
0.0223161
0.0232405
0.0239723
0.0245425
0.0249879
0.0253427
0.0256424
0.0259435
0.0262159
0.0267584
0.0276668
0.103696
0.172352
0.15437
0.130789
0.112795
0.0984186
0.0861048
0.0750349
0.064746
0.05496
0.0455665
0.0363732
0.0270823
0.0184942
0.0156525
0.00103645
0.00196489
0.00278002
0.00348303
0.00409707
0.00466242
0.00509468
0.00536462
0.00544753
0.00528841
0.00481597
0.00404006
0.00321299
0.00214891
0.00139479
0.00295403
0.00394341
0.00481601
0.00563378
0.00643531
0.00722049
0.00792042
0.00854953
0.00907947
0.00952881
0.00989722
0.0101979
0.0104377
0.0106257
0.0107689
0.0108722
0.0109445
0.0109759
0.0110204
0.0110426
0.0284989
0.065841
0.0774614
0.0760017
0.0709792
0.0652725
0.0594549
0.0536769
0.0479266
0.0421676
0.0364065
0.0307022
0.0253437
0.021667
0.0293598
0.00204783
0.00200415
0.00250323
0.00297755
0.00341562
0.00381368
0.00413676
0.00435512
0.00442692
0.00430981
0.00394916
0.00341769
0.00289739
0.00321892
0.00240682
0.00278467
0.00333011
0.00384936
0.00440336
0.00496775
0.00551918
0.00602502
0.00647827
0.00686407
0.00718904
0.00745542
0.00767073
0.00784041
0.00797004
0.0080639
0.00812478
0.00815774
0.00816163
0.00815423
0.00812823
0.0173446
0.0357932
0.0473546
0.0513228
0.0512726
0.0494744
0.0467639
0.0435964
0.0401404
0.0364837
0.0327283
0.0290789
0.026074
0.0256714
0.0436522
0.00311789
0.00223526
0.00253631
0.0029289
0.0033157
0.00367529
0.00397107
0.00417281
0.00423808
0.00413756
0.00383973
0.00341294
0.0031131
0.00412287
0.00350654
0.00279911
0.00306317
0.00344742
0.0038958
0.00437237
0.00484425
0.00528411
0.00567765
0.00601438
0.00629635
0.0065265
0.00671063
0.00685383
0.00696085
0.00703594
0.00708181
0.00710221
0.00709885
0.00708241
0.0070541
0.0140311
0.0245734
0.0331545
0.0379156
0.0397562
0.039841
0.0389099
0.0373194
0.035322
0.0330668
0.0307225
0.0285938
0.0274185
0.029757
0.0584952
0.00415955
0.00254422
0.00269638
0.00304465
0.00342212
0.00377423
0.00406189
0.00425651
0.00432083
0.00423982
0.003997
0.00367351
0.00355965
0.00491705
0.00452755
0.00290795
0.0029376
0.00323556
0.00362735
0.00406066
0.00449462
0.00490284
0.00526813
0.00558164
0.00584352
0.00605683
0.00622662
0.00635825
0.00645602
0.00652361
0.00656397
0.00658071
0.00657724
0.00656149
0.00653644
0.0126114
0.0193812
0.0256149
0.0299423
0.03237
0.0333946
0.0334693
0.0329182
0.0319331
0.0307063
0.029451
0.0285486
0.0288857
0.0337155
0.0727556
0.00515939
0.00289372
0.00293103
0.00326107
0.0036456
0.00400983
0.00430705
0.00451061
0.00458701
0.00453168
0.00433609
0.00409827
0.00410822
0.00542919
0.00542796
0.003012
0.00289446
0.00312077
0.00347592
0.00388275
0.00429464
0.00468349
0.00503142
0.00533058
0.00558049
0.00578473
0.00594787
0.00607448
0.00616864
0.00623366
0.006273
0.00629055
0.00629007
0.00627774
0.006256
0.0118631
0.0165874
0.0212304
0.0249061
0.0273903
0.0288447
0.0295194
0.0296399
0.0293936
0.0289542
0.0285752
0.0286935
0.0303555
0.0375231
0.0864058
0.00613593
0.0032614
0.0032202
0.00355086
0.00395875
0.00434966
0.00467037
0.00489601
0.00499786
0.00497579
0.00482649
0.00464978
0.00474143
0.00589375
0.00618977
0.003134
0.00289783
0.00306783
0.00339615
0.00378473
0.00418113
0.00455472
0.00488871
0.00517644
0.00541785
0.0056159
0.00577487
0.00589871
0.0059915
0.0060568
0.00609791
0.00611848
0.00612222
0.00611384
0.00609496
0.0114145
0.0149181
0.0184924
0.0215725
0.0239157
0.0255357
0.0265577
0.0271341
0.0274224
0.027602
0.0279428
0.0289412
0.0318041
0.0411464
0.0996762
0.0070958
0.0036503
0.00356014
0.00391294
0.00436072
0.00479004
0.00514371
0.00539942
0.00554127
0.00555942
0.00545815
0.00532016
0.00542745
0.00634237
0.00679179
0.00327473
0.00293334
0.00306059
0.00336918
0.00374458
0.00412755
0.00448655
0.00480699
0.00508298
0.00531532
0.00550663
0.00566123
0.00578316
0.00587607
0.00594321
0.00598746
0.00601212
0.00602039
0.00601579
0.0059994
0.0111219
0.0138437
0.016685
0.0192804
0.0214256
0.0230788
0.0242957
0.0251804
0.0258668
0.026536
0.0274772
0.0292438
0.0331999
0.044616
0.112682
0.00803453
0.00407416
0.00396225
0.00436487
0.00486933
0.00534399
0.00573318
0.00602267
0.00620739
0.00627738
0.00623551
0.00613049
0.00619051
0.00684682
0.00721617
0.00343509
0.00299425
0.00308997
0.00338802
0.00375371
0.00412311
0.00446607
0.0047696
0.0050306
0.00525091
0.00543394
0.0055837
0.00570374
0.00579715
0.00586663
0.00591454
0.00594356
0.00595622
0.00595512
0.00594102
0.0109199
0.013114
0.0154393
0.0176545
0.0196018
0.021225
0.0225461
0.0236393
0.024624
0.0256836
0.0271289
0.029572
0.0345381
0.0479567
0.125497
0.00894907
0.00454966
0.00445786
0.00494525
0.00552017
0.00603701
0.00645192
0.00676618
0.00698881
0.00712308
0.0071628
0.00712348
0.00714937
0.00762773
0.00737135
0.00360923
0.00307836
0.00316125
0.0034562
0.00381259
0.00416419
0.00448477
0.00476624
0.00500847
0.00521343
0.00538597
0.00552948
0.00564682
0.00574032
0.00581198
0.00586346
0.00589664
0.00591321
0.00591531
0.00590335
0.0107749
0.0125983
0.0145514
0.0164718
0.0182417
0.0198084
0.0211794
0.0224134
0.0236217
0.0249927
0.0268613
0.0299029
0.0358141
0.0512015
0.138344
0.00983293
0.00510969
0.00510877
0.0057221
0.00636778
0.00690387
0.00731545
0.00762889
0.00787401
0.00807217
0.00822817
0.00833962
0.00848166
0.00908431
0.00734859
0.00378286
0.00319617
0.00328484
0.00358482
0.00392785
0.00425239
0.00454128
0.00479276
0.00500999
0.00519674
0.00535577
0.00549096
0.0056042
0.00569685
0.00577003
0.00582456
0.00586145
0.00588158
0.00588651
0.00587618
0.010668
0.0122232
0.0139022
0.0155941
0.0172125
0.0187143
0.0201031
0.0214307
0.0228052
0.0244221
0.0266423
0.0302102
0.0370135
0.0543861
0.151687
0.010727
0.00580459
0.00603625
0.0068062
0.00748637
0.00798384
0.0083366
0.00860305
0.00883766
0.00908638
0.00938398
0.00977265
0.0104149
0.0120659
0.00706427
0.00390498
0.00336109
0.0034893
0.00379598
0.00411141
0.0043926
0.00463644
0.00484816
0.00503344
0.00519638
0.00533904
0.0054634
0.00557071
0.00566119
0.00573489
0.00579166
0.00583161
0.00585482
0.0058622
0.00585322
0.0105876
0.0119444
0.0134184
0.0149326
0.0164247
0.0178621
0.0192497
0.0206369
0.0221316
0.0239367
0.0264393
0.0304564
0.0380944
0.0575307
0.166171
0.011588
0.00682133
0.00748038
0.00836636
0.00896441
0.00931132
0.00951823
0.00967265
0.00984651
0.0101082
0.0105424
0.0113027
0.0128687
0.0172694
0.00684146
0.00406304
0.00363545
0.00383016
0.00412448
0.00437823
0.00458982
0.00477078
0.00493101
0.00507664
0.00521027
0.00533287
0.00544369
0.00554304
0.00562978
0.00570272
0.00576073
0.00580296
0.00582865
0.00583814
0.00583034
0.0105265
0.0117344
0.0130531
0.0144288
0.0158169
0.0171944
0.0185692
0.0199904
0.0215663
0.0235057
0.026217
0.0305854
0.0389602
0.0605989
0.182936
0.0126178
0.00873328
0.00988776
0.0106288
0.0108816
0.0108971
0.0108411
0.0108053
0.0108587
0.0110785
0.0115974
0.0127235
0.0154856
0.0251587
0.00577916
0.00415559
0.00417008
0.00441968
0.00461106
0.00474053
0.0048456
0.00494294
0.00503918
0.00513757
0.00523669
0.00533495
0.00542978
0.00551901
0.00560022
0.005671
0.00572912
0.00577275
0.00580031
0.00581153
0.00580474
0.0104798
0.011575
0.0127754
0.0140431
0.0153462
0.0166696
0.0180242
0.0194593
0.0210822
0.0231025
0.0259383
0.0305199
0.0393889
0.062955
0.203859
0.0137108
0.0133402
0.0140375
0.0138037
0.0132526
0.0127034
0.0122566
0.0119505
0.0118231
0.0119365
0.0124487
0.0138285
0.0178644
0.0378368
0.00592501
0.00524341
0.00545957
0.00539675
0.00527895
0.0051953
0.00515324
0.00514776
0.00516888
0.00521381
0.00527382
0.00534439
0.00542031
0.0054972
0.00557103
0.00563813
0.00569511
0.0057392
0.00576796
0.00578054
0.00577461
0.0104441
0.0114541
0.0125646
0.0137482
0.0149824
0.0162578
0.0175876
0.01902
0.0206588
0.0227068
0.0255711
0.0301667
0.0390773
0.0632544
0.231757
0.0398798
0.0257039
0.020651
0.0178115
0.0159284
0.0146131
0.013685
0.0130545
0.0126962
0.0126444
0.0130217
0.0143836
0.0194601
0.0708609
0.02126
0.0117957
0.00805056
0.00671599
0.0060693
0.00570705
0.00549389
0.00537358
0.00531526
0.00530254
0.00531981
0.00535992
0.00541441
0.00547672
0.00554129
0.0056031
0.00565766
0.00570121
0.00573047
0.005744
0.00573879
0.0104173
0.0113637
0.0124064
0.0135255
0.0147045
0.0159377
0.0172395
0.0186556
0.0202826
0.0223075
0.0250994
0.0294602
0.0374915
0.0564673
0.133094
0.0742904
0.0407948
0.0277816
0.0218415
0.0185271
0.0164317
0.015022
0.0140627
0.0134558
0.0131905
0.013342
0.0142687
0.0171824
0.0275213
0.0197973
0.0133024
0.00969729
0.00783599
0.00681295
0.00621173
0.00584049
0.00560923
0.00547118
0.00539878
0.00537311
0.00538053
0.00541148
0.00545706
0.00551048
0.0055654
0.00561619
0.00565816
0.00568719
0.00570125
0.00569658
0.0103978
0.0112981
0.0122913
0.0133621
0.0144977
0.0156947
0.0169667
0.0183555
0.0199474
0.0219056
0.0245404
0.0284782
0.0351344
0.0481781
0.0774392
0.0635836
0.0434427
0.0314603
0.0246653
0.0205853
0.0179557
0.01617
0.0149303
0.0140935
0.0136088
0.0135105
0.0139311
0.0153483
0.0182286
0.0163255
0.0129601
0.0103079
0.00853871
0.00739713
0.00665573
0.00616657
0.00584155
0.00563031
0.00550061
0.0054307
0.0054051
0.0054109
0.00543795
0.00547844
0.00552483
0.00557049
0.0056098
0.00563784
0.00565196
0.00564764
0.0103847
0.0112537
0.0122132
0.0132498
0.0143528
0.0155191
0.016761
0.0181143
0.019653
0.0215125
0.0239355
0.0273682
0.0326483
0.0413414
0.0543657
0.0510589
0.0408458
0.0320815
0.0260135
0.0219022
0.0190714
0.0170707
0.0156337
0.0146121
0.0139349
0.0135928
0.0136293
0.0141503
0.0149792
0.0142016
0.0122872
0.0104092
0.00891132
0.0078073
0.00701617
0.00645573
0.00606045
0.00578703
0.00560489
0.00549205
0.00543214
0.00541206
0.00541933
0.00544519
0.00548146
0.0055206
0.00555616
0.00558239
0.00559605
0.00559188
0.0103772
0.0112286
0.0121683
0.0131836
0.0142641
0.0154059
0.0166184
0.0179311
0.0194043
0.0211449
0.0233317
0.0262573
0.0303629
0.0361642
0.0428177
0.0422599
0.0370468
0.031175
0.0262656
0.0225438
0.0197761
0.0177144
0.0161708
0.0150213
0.0141937
0.0136558
0.0134014
0.0134161
0.0134859
0.0129364
0.0116897
0.0103184
0.00908508
0.00807898
0.00729606
0.00670241
0.00625992
0.00593715
0.00570901
0.00555582
0.00546194
0.00541427
0.00540112
0.00541096
0.00543553
0.00546676
0.00549741
0.005521
0.00553365
0.00552938
0.0103752
0.0112218
0.0121551
0.0131616
0.0142297
0.0153534
0.0165387
0.0178081
0.019209
0.0208216
0.0227702
0.0252325
0.0284077
0.0323575
0.0361517
0.0362435
0.0336497
0.0296676
0.0258845
0.0226916
0.0201384
0.0181289
0.0165567
0.0153348
0.0144019
0.0137194
0.0132596
0.0129758
0.0127166
0.012164
0.0112425
0.0101823
0.00915694
0.00825707
0.00750962
0.00690881
0.006438
0.0060781
0.00581101
0.00562084
0.00549403
0.00541837
0.00538253
0.00537597
0.00538744
0.00540933
0.00543392
0.00545396
0.005465
0.00546038
0.0103788
0.0112335
0.0121739
0.0131843
0.0142503
0.0153632
0.0165248
0.0177509
0.0190769
0.0205606
0.0222837
0.0243444
0.0268089
0.0295721
0.0319249
0.0321932
0.0307682
0.0280739
0.0251883
0.0225315
0.0202519
0.0183614
0.0168174
0.0155688
0.014571
0.0137885
0.0131884
0.0127212
0.0122836
0.0117084
0.0109369
0.0100619
0.00918529
0.00837801
0.00767397
0.00708094
0.00659549
0.00620875
0.00590948
0.00568617
0.00552795
0.00542434
0.00536491
0.0053394
0.00533761
0.00534879
0.00536611
0.00538167
0.00539044
0.00538515
0.0103883
0.011265
0.0122272
0.013255
0.0143302
0.0154402
0.0165823
0.017767
0.019019
0.0203782
0.0218955
0.0236185
0.025546
0.027531
0.0290843
0.0293559
0.028493
0.0266155
0.0244007
0.0222048
0.0202051
0.0184632
0.0169823
0.0157406
0.0147102
0.0138634
0.0131699
0.0125867
0.0120433
0.0114434
0.0107425
0.00997638
0.00920146
0.00846724
0.00780445
0.00722571
0.00673452
0.00632902
0.00600357
0.00575097
0.00556327
0.00543213
0.00534849
0.00530282
0.00528542
0.00528558
0.00529448
0.00530458
0.00531034
0.00530402
0.0104044
0.0113189
0.012319
0.0133794
0.0144763
0.0155925
0.016721
0.0178668
0.0190472
0.0202893
0.0216224
0.0230642
0.0245836
0.0260416
0.0271096
0.0273243
0.0267431
0.0253743
0.0236409
0.0218169
0.0200697
0.0184813
0.0170807
0.0158674
0.0148281
0.0139434
0.0131895
0.0125322
0.0119216
0.0112992
0.0106311
0.00992836
0.00922083
0.00854087
0.00791286
0.00734973
0.00685779
0.00643938
0.00609284
0.00581456
0.00559955
0.00544163
0.00533349
0.00526667
0.00523194
0.00521954
0.00521951
0.00522315
0.00522511
0.00521723
0.0104283
0.0113989
0.0124562
0.0135668
0.0146996
0.0158319
0.0169527
0.0180634
0.0191756
0.0203078
0.0214769
0.0226835
0.0238877
0.0249737
0.0257209
0.025861
0.0254207
0.0243663
0.0229704
0.0214341
0.0199007
0.0184554
0.0171393
0.0159659
0.0149329
0.0140292
0.0132373
0.0125316
0.0118773
0.0112352
0.0105809
0.00991432
0.00925006
0.00860854
0.00800763
0.00745852
0.00696809
0.00654064
0.00617707
0.00587643
0.00563631
0.0054527
0.0053201
0.00523143
0.00517834
0.00515143
0.00514103
0.00513781
0.0051352
0.00512489
0.0104617
0.0115109
0.0126488
0.0138305
0.0150155
0.0161749
0.0172942
0.0183727
0.0194195
0.0204484
0.02147
0.0224768
0.0234308
0.0242412
0.0247591
0.0248215
0.024444
0.023582
0.0224182
0.0210977
0.0197375
0.0184167
0.0171809
0.0160513
0.0150333
0.0141227
0.0133078
0.0125703
0.0118856
0.0112271
0.0105763
0.00992893
0.00929139
0.00867576
0.00809452
0.00755648
0.00706796
0.00663379
0.00625625
0.00593619
0.00567315
0.00546513
0.00530841
0.00519748
0.00512512
0.0050826
0.00506058
0.00504934
0.00504159
0.00502876
0.0105067
0.0116632
0.0129112
0.0141897
0.0154459
0.016644
0.0177674
0.0188153
0.0197975
0.0207268
0.0216106
0.0224453
0.0231935
0.0237885
0.0241294
0.024117
0.0237513
0.0230049
0.0219969
0.0208336
0.0196082
0.0183905
0.0172253
0.0161378
0.0151383
0.0142275
0.0133987
0.0126395
0.0119326
0.0112596
0.0106066
0.00996776
0.00934523
0.0087457
0.00817748
0.00764703
0.00715967
0.00671991
0.0063306
0.00599357
0.00570972
0.0054787
0.0052985
0.00516516
0.00507282
0.00501368
0.00497888
0.00495861
0.00494507
0.00492942
0.0105668
0.011868
0.0132642
0.0146715
0.0160211
0.01727
0.0184012
0.0194176
0.0203329
0.0211628
0.021917
0.0225919
0.0231651
0.0235813
0.0237747
0.0236903
0.0233025
0.0226203
0.0217124
0.0206588
0.0195338
0.0183967
0.0172898
0.0162388
0.015257
0.0143485
0.0135106
0.0127353
0.0120109
0.0113242
0.010665
0.0100275
0.00941152
0.00882039
0.00825937
0.00773296
0.00724531
0.00680022
0.00640054
0.0060485
0.0057458
0.00549328
0.00529045
0.00513482
0.00502201
0.00494539
0.0048968
0.00486655
0.00484656
0.00482769
0.0106469
0.0121434
0.0137386
0.0153156
0.0167842
0.0180949
0.0192345
0.0202141
0.0210556
0.0217814
0.0224062
0.0229316
0.0233409
0.0236017
0.0236647
0.0235003
0.0230784
0.0224197
0.0215691
0.0205867
0.0195316
0.0184533
0.0173903
0.0163675
0.0153994
0.0144925
0.0136468
0.0128576
0.0121173
0.0114167
0.0107481
0.0101065
0.00949052
0.00890155
0.00834266
0.0078168
0.00732696
0.00687614
0.00646681
0.00610123
0.0057814
0.00550891
0.00528444
0.00510692
0.0049734
0.0048786
0.0048153
0.00477422
0.00474708
0.00472459
0.0107542
0.0125171
0.0143813
0.0161803
0.0177967
0.0191775
0.0203201
0.0212505
0.0220045
0.022615
0.0231044
0.0234805
0.0237358
0.0238474
0.0237874
0.0235303
0.0230641
0.0224001
0.0215731
0.020629
0.0196163
0.0185769
0.0175429
0.016538
0.015577
0.014668
0.0138128
0.0130092
0.0122524
0.0115363
0.0108551
0.0102048
0.00958348
0.00899134
0.00842999
0.00790121
0.00740699
0.00694949
0.00653066
0.00615248
0.00581693
0.00552593
0.00528095
0.00508214
0.0049279
0.00481439
0.0047356
0.00468292
0.00464798
0.00462142
0.0109002
0.0130329
0.0152649
0.0173538
0.0191487
0.0206009
0.0217307
0.0225893
0.0232327
0.0237086
0.0240485
0.0242677
0.0243668
0.0243328
0.0241451
0.0237891
0.0232574
0.0225641
0.0217342
0.0208036
0.0198093
0.0187872
0.0177658
0.0167666
0.015804
0.0148865
0.0140176
0.0131965
0.0124206
0.011686
0.0109886
0.0103249
0.0096932
0.00909295
0.00852478
0.00798956
0.00748846
0.00702285
0.00659411
0.00620375
0.0058535
0.00554527
0.00528094
0.00506158
0.00488685
0.00475433
0.00465939
0.00459438
0.00455106
0.00452
0.0111038
0.0137642
0.0165084
0.0189746
0.0209752
0.0224853
0.023569
0.0243171
0.0248137
0.025125
0.0252928
0.0253385
0.0252726
0.0250828
0.0247604
0.0242952
0.0236844
0.0229388
0.0220792
0.0211341
0.0201339
0.0191083
0.0180821
0.0170744
0.0160988
0.0151642
0.0142745
0.0134303
0.0126305
0.0118728
0.0111542
0.0104722
0.0098249
0.00921156
0.00863207
0.00808666
0.00757578
0.00710012
0.00666045
0.00625777
0.00589337
0.0055689
0.00528628
0.0050472
0.00485239
0.00470071
0.0045891
0.00451118
0.00445895
0.00442305
0.0113985
0.014841
0.0183148
0.0212667
0.0234838
0.0250087
0.025984
0.0265591
0.0268542
0.0269572
0.0269189
0.0267663
0.0265126
0.0261531
0.0256812
0.0250903
0.0243797
0.0235584
0.0226434
0.0216578
0.0206268
0.0195752
0.0185243
0.0174912
0.0164883
0.0155245
0.0146039
0.0137281
0.0128969
0.0121094
0.0113633
0.0106566
0.0099878
0.00935576
0.00875995
0.00820003
0.00767589
0.00718758
0.0067353
0.00631946
0.00594084
0.00560066
0.00530061
0.00504261
0.00482812
0.00465734
0.00452866
0.00443731
0.00437578
0.00433483
0.0118495
0.0165128
0.0210527
0.024609
0.0270056
0.0284443
0.0292008
0.0295049
0.0295166
0.0293512
0.029055
0.028666
0.0281949
0.0276397
0.0269943
0.0262535
0.025417
0.024492
0.0234924
0.022437
0.0213468
0.0202427
0.019143
0.018063
0.0170141
0.0160046
0.0150388
0.0141188
0.0132453
0.0124181
0.0116355
0.0108961
0.0101981
0.00954044
0.00892213
0.00834237
0.00780049
0.00729597
0.00682842
0.00639767
0.00600392
0.00564785
0.00533071
0.00505433
0.00482056
0.00463083
0.00448475
0.00437958
0.00430847
0.00426261
0.0126002
0.0193073
0.0254389
0.0296741
0.0320905
0.0332325
0.0335805
0.033462
0.0330743
0.0325427
0.0319214
0.0312398
0.0305054
0.0297141
0.0288582
0.0279315
0.0269326
0.0258665
0.0247444
0.0235815
0.0223957
0.0212046
0.0200242
0.018868
0.0177465
0.016668
0.0156359
0.014653
0.0137209
0.0128394
0.0120073
0.0112232
0.0104856
0.00979279
0.0091436
0.00853668
0.00797081
0.00744487
0.00695787
0.00650904
0.00609796
0.00572468
0.00538992
0.00509508
0.00484205
0.00463325
0.00446962
0.00435041
0.00426956
0.00421966
0.0140219
0.0244944
0.0329878
0.0377293
0.0397099
0.0401387
0.0397621
0.0389749
0.0380121
0.0369822
0.0359298
0.0348698
0.0337994
0.0327075
0.0315813
0.0304112
0.029193
0.0279292
0.0266282
0.0253027
0.0239678
0.0226388
0.0213299
0.0200533
0.0188189
0.0176347
0.0165036
0.0154283
0.0144113
0.0134523
0.0125502
0.0117031
0.0109093
0.0101669
0.00947404
0.00882875
0.00822916
0.00767348
0.00716003
0.00668738
0.00625444
0.00586057
0.0055059
0.00519117
0.00491808
0.00468956
0.00450793
0.00437469
0.00428396
0.00423242
0.0173365
0.0356918
0.0472332
0.0513694
0.0517609
0.0506931
0.049012
0.0471789
0.0453611
0.0436198
0.0419644
0.0403822
0.0388502
0.0373434
0.0358396
0.0343226
0.032784
0.031223
0.0296455
0.0280622
0.0264863
0.0249319
0.0234123
0.0219386
0.0205208
0.0191671
0.0178789
0.0166592
0.0155111
0.0144335
0.0134246
0.012482
0.0116032
0.0107856
0.0100264
0.00932277
0.00867198
0.00807131
0.00751821
0.00701041
0.00654613
0.00612384
0.00574329
0.00540402
0.00510793
0.00485779
0.00465734
0.0045108
0.00440993
0.00436307
0.0284911
0.0656716
0.0775655
0.0767507
0.0727977
0.0685571
0.0645871
0.0610143
0.0578272
0.0549704
0.0523772
0.049983
0.0477293
0.0455655
0.0434532
0.0413654
0.0392872
0.0372139
0.0351498
0.0331047
0.031092
0.029126
0.0272204
0.0253866
0.0236352
0.0219761
0.0204074
0.018933
0.0175549
0.0162706
0.0150761
0.0139676
0.0129412
0.0119927
0.0111178
0.010312
0.00957116
0.00889111
0.00826802
0.00769849
0.00717982
0.00670926
0.00628679
0.00590922
0.00558113
0.00530347
0.00508143
0.00492592
0.00481433
0.00479051
0.10368
0.172088
0.155541
0.134034
0.118562
0.107377
0.098733
0.0917153
0.0858377
0.0807841
0.0763268
0.0722947
0.0685562
0.0650107
0.0615875
0.0582403
0.054944
0.0516915
0.0484888
0.0453505
0.0422959
0.0393444
0.0365149
0.0338213
0.0312775
0.0288995
0.0266785
0.024615
0.022707
0.0209459
0.0193228
0.0178302
0.0164606
0.015206
0.0140586
0.0130106
0.0120542
0.0111827
0.0103897
0.0096696
0.00901848
0.00843108
0.00791011
0.00744362
0.00705192
0.0067252
0.00647605
0.00633072
0.00621945
0.00628991
1.91875
0.727985
0.461476
0.36193
0.310696
0.276949
0.252088
0.232733
0.216849
0.203399
0.191609
0.180929
0.170945
0.161381
0.152059
0.14287
0.133783
0.124815
0.11602
0.107468
0.0992341
0.0913827
0.0839677
0.0770277
0.0705776
0.0646042
0.0591503
0.0541863
0.0496698
0.0455623
0.041835
0.038459
0.0354056
0.0326462
0.0301534
0.0279028
0.0258718
0.0240418
0.0223961
0.020923
0.0196127
0.0184571
0.0174655
0.0166066
0.0159764
0.0154617
0.0152406
0.0153072
0.015404
0.0166903
)
;

boundaryField
{
    floor
    {
        Cmu             0.09;
        kappa           0.41;
        E               9.8;
        type            epsilonWallFunction;
        value           nonuniform List<scalar> 
50
(
1.91876
0.722765
0.447523
0.338369
0.276612
0.231484
0.194905
0.163585
0.135999
0.111365
0.0896679
0.0700511
0.0493915
0.025593
0.00515297
0.000663892
0.00271208
0.00461475
0.0066561
0.00854235
0.0104433
0.0117595
0.0125171
0.0126488
0.0123323
0.0111231
0.00847881
0.00559659
0.00191408
0.00126231
0.00387091
0.00621867
0.00877594
0.011305
0.0136962
0.0160577
0.0180404
0.019743
0.0211571
0.0223161
0.0232405
0.0239723
0.0245425
0.0249879
0.0253427
0.0256424
0.0259435
0.0262159
0.0267584
0.0276668
)
;
        lowReCorrection 0;
    }
    ceiling
    {
        Cmu             0.09;
        kappa           0.41;
        E               9.8;
        type            epsilonWallFunction;
        value           nonuniform List<scalar> 
50
(
1.91875
0.727985
0.461476
0.36193
0.310696
0.276949
0.252088
0.232733
0.216849
0.203399
0.191609
0.180929
0.170945
0.161381
0.152059
0.14287
0.133783
0.124815
0.11602
0.107468
0.0992341
0.0913827
0.0839677
0.0770277
0.0705776
0.0646042
0.0591503
0.0541863
0.0496698
0.0455623
0.041835
0.038459
0.0354056
0.0326462
0.0301534
0.0279028
0.0258718
0.0240418
0.0223961
0.020923
0.0196127
0.0184571
0.0174655
0.0166066
0.0159764
0.0154617
0.0152406
0.0153072
0.015404
0.0166903
)
;
        lowReCorrection 0;
    }
    inlet
    {
        type            fixedValue;
        value           uniform 0.01;
    }
    outlet
    {
        type            zeroGradient;
    }
    fixedWalls
    {
        type            empty;
    }
    baffleFacesThermoBaffle1D_master
    {
        Cmu             0.09;
        kappa           0.41;
        E               9.8;
        type            epsilonWallFunction;
        value           nonuniform List<scalar> 
16
(
0.000663892
0.00103645
0.00204783
0.00311789
0.00415955
0.00515939
0.00613593
0.0070958
0.00803453
0.00894907
0.00983293
0.010727
0.011588
0.0126178
0.0137108
0.0398798
)
;
        lowReCorrection 0;
    }
    baffleFacesThermoBaffle1D_slave
    {
        Cmu             0.09;
        kappa           0.41;
        E               9.8;
        type            epsilonWallFunction;
        value           nonuniform List<scalar> 
16
(
0.00515297
0.0156525
0.0293598
0.0436522
0.0584952
0.0727556
0.0864058
0.0996762
0.112682
0.125497
0.138344
0.151687
0.166171
0.182936
0.203859
0.231757
)
;
        lowReCorrection 0;
    }
    baffleFacesThermoBaffle3D_master
    {
        Cmu             0.09;
        kappa           0.41;
        E               9.8;
        type            epsilonWallFunction;
        value           nonuniform List<scalar> 
16
(
0.00126231
0.00139479
0.00240682
0.00350654
0.00452755
0.00542796
0.00618977
0.00679179
0.00721617
0.00737135
0.00734859
0.00706427
0.00684146
0.00577916
0.00592501
0.02126
)
;
        lowReCorrection 0;
    }
    baffleFacesThermoBaffle3D_slave
    {
        Cmu             0.09;
        kappa           0.41;
        E               9.8;
        type            epsilonWallFunction;
        value           nonuniform List<scalar> 
16
(
0.00191408
0.00214891
0.00321892
0.00412287
0.00491705
0.00542919
0.00589375
0.00634237
0.00684682
0.00762773
0.00908431
0.0120659
0.0172694
0.0251587
0.0378368
0.0708609
)
;
        lowReCorrection 0;
    }
}


// ************************************************************************* //
