/*--------------------------------*- C++ -*----------------------------------*\
| =========                 |                                                 |
| \\      /  F ield         | OpenFOAM: The Open Source CFD Toolbox           |
|  \\    /   O peration     | Version:  v1906                                 |
|   \\  /    A nd           | Web:      www.OpenFOAM.com                      |
|    \\/     M anipulation  |                                                 |
\*---------------------------------------------------------------------------*/
FoamFile
{
    version     2.0;
    format      ascii;
    class       volScalarField;
    location    "2000";
    object      k;
}
// * * * * * * * * * * * * * * * * * * * * * * * * * * * * * * * * * * * * * //

dimensions      [0 2 -2 0 0 0 0];


internalField   nonuniform List<scalar> 
2000
(
0.0963833
0.0502712
0.0365201
0.0303097
0.0264993
0.0235325
0.0209831
0.0186702
0.0165073
0.0144484
0.0125049
0.0106071
0.00840277
0.00542085
0.00213868
0.000545582
0.00121396
0.0017302
0.00220871
0.00260841
0.00298225
0.0032278
0.00336496
0.00338852
0.00333169
0.00311011
0.00259519
0.00196775
0.00110532
0.000836558
0.00153743
0.00210902
0.00265317
0.00314094
0.00356961
0.00396883
0.00428917
0.00455492
0.00476989
0.00494249
0.00507801
0.00518399
0.00526579
0.00532924
0.0053795
0.00542174
0.00546401
0.00550233
0.00557771
0.00570243
0.0992604
0.0838309
0.0704505
0.0614764
0.0548942
0.0494823
0.0447188
0.0403527
0.0362248
0.0322262
0.0282572
0.024138
0.019507
0.0135047
0.00534306
0.000874538
0.00253283
0.00356147
0.00451876
0.00533964
0.00604633
0.00658017
0.00690533
0.0069755
0.00672283
0.00607217
0.00498548
0.00359525
0.00142166
0.00106545
0.00278196
0.00387169
0.00496512
0.00596922
0.00687561
0.0077042
0.00841636
0.00902979
0.0095478
0.00998117
0.0103387
0.0106319
0.0108705
0.0110642
0.0112217
0.011351
0.0114621
0.0115565
0.0116619
0.0117385
0.0991739
0.0922538
0.0828526
0.0746696
0.067834
0.0619179
0.0565833
0.0516058
0.0468164
0.0420751
0.0372392
0.0321071
0.0263347
0.0191093
0.0081265
0.00137701
0.00357388
0.00481468
0.00587836
0.00679837
0.00758089
0.00816506
0.00849043
0.00852021
0.00816063
0.00733991
0.00609317
0.00457
0.00186136
0.00153252
0.00394469
0.00516813
0.00634082
0.00746389
0.00852197
0.00950921
0.0103919
0.0111657
0.0118284
0.0123889
0.0128566
0.0132432
0.0135597
0.0138161
0.0140213
0.0141827
0.0143091
0.0144029
0.0144755
0.0145013
0.0991379
0.0947974
0.0882215
0.0814483
0.0751638
0.0694031
0.0640313
0.0589073
0.0538921
0.0488519
0.0436412
0.0380643
0.0317817
0.0239029
0.0105862
0.0018224
0.00437198
0.00576374
0.00691028
0.00789793
0.00872129
0.00932205
0.00961443
0.00959239
0.00914523
0.00823015
0.00689427
0.00528361
0.00219546
0.0019692
0.0047115
0.00598953
0.00720841
0.00840179
0.00955846
0.0106519
0.0116488
0.0125339
0.0133008
0.0139553
0.0145062
0.0149648
0.0153421
0.0156479
0.0158916
0.0160799
0.0162204
0.0163156
0.0163732
0.0163802
0.0991332
0.0958463
0.090935
0.085394
0.0798386
0.0744755
0.0693038
0.0642546
0.0592304
0.0541171
0.0487787
0.0430251
0.0364964
0.0281365
0.0128671
0.00220852
0.00506576
0.00658752
0.00781475
0.00886698
0.0097306
0.0103432
0.0106147
0.0105434
0.0100245
0.00902682
0.00760556
0.00589428
0.00246911
0.00233489
0.00527029
0.00657356
0.00781829
0.00906305
0.0102933
0.0114684
0.0125539
0.0135269
0.0143786
0.0151115
0.0157335
0.0162551
0.0166876
0.0170402
0.0173212
0.0175373
0.017695
0.0177983
0.0178539
0.0178554
0.0991455
0.0964013
0.0924869
0.0878818
0.0830173
0.0781187
0.0732504
0.0683932
0.0634835
0.0584299
0.0531075
0.0473246
0.0406818
0.0319336
0.0148814
0.00254959
0.00569748
0.00734826
0.00866344
0.00978842
0.0107042
0.0113431
0.0116132
0.0115111
0.0109354
0.00985467
0.00831366
0.00642675
0.00263779
0.00263502
0.00569108
0.00700582
0.00826577
0.00955182
0.01084
0.0120822
0.0132393
0.0142848
0.0152075
0.016008
0.0166938
0.0172744
0.0177593
0.0181572
0.0184756
0.0187213
0.0189006
0.0190179
0.0190791
0.0190806
0.0991652
0.0967515
0.0934706
0.0895545
0.08528
0.0808363
0.0763059
0.0716987
0.0669755
0.0620627
0.056844
0.0511189
0.0444359
0.0353587
0.016689
0.00286193
0.0062875
0.00807331
0.00949296
0.010708
0.0116959
0.0123845
0.0126786
0.012571
0.0119565
0.0107897
0.00908336
0.0069023
0.00278625
0.00287617
0.00600557
0.00732301
0.008596
0.00991784
0.0112555
0.0125543
0.0137703
0.0148756
0.0158587
0.0167192
0.0174626
0.0180972
0.0186312
0.0190728
0.0194294
0.0197071
0.0199116
0.020047
0.0201181
0.0201225
0.0991882
0.0970008
0.0941487
0.0907425
0.0869535
0.0829233
0.0787302
0.0743961
0.0698982
0.065175
0.0601146
0.0545019
0.0478266
0.0384662
0.0183567
0.00315313
0.00684731
0.00878341
0.0103322
0.0116628
0.0127471
0.0135105
0.0138557
0.0137706
0.0131402
0.0118905
0.00997706
0.00735975
0.00292596
0.00305984
0.00622252
0.00754249
0.00883253
0.0101909
0.0115747
0.0129224
0.0141874
0.0153427
0.0163762
0.0172875
0.0180807
0.0187634
0.0193434
0.019828
0.0202234
0.0205348
0.0207669
0.020923
0.0210066
0.0210156
0.0992126
0.0971931
0.094648
0.0916267
0.0882326
0.0845658
0.0806912
0.0766333
0.0723783
0.0678726
0.0630046
0.0575413
0.0509116
0.0413122
0.0199206
0.00342544
0.00738804
0.00950285
0.0112166
0.0126938
0.0138977
0.0147555
0.0151756
0.0151375
0.0145188
0.0132068
0.0110734
0.00792433
0.00307917
0.00318605
0.00633616
0.00767098
0.00899087
0.0103937
0.0118248
0.0132159
0.0145207
0.0157143
0.0167866
0.0177381
0.0185734
0.0192994
0.0199225
0.0204485
0.0208825
0.0212283
0.0214893
0.0216675
0.0217651
0.0217797
0.0992373
0.0973495
0.0950345
0.0923104
0.0892381
0.0858856
0.082303
0.0785125
0.0745045
0.0702302
0.0655764
0.0602916
0.053744
0.0439548
0.0214037
0.00368071
0.00792478
0.0102679
0.0121946
0.0138511
0.0151898
0.0161477
0.0166571
0.0166804
0.0161027
0.0147685
0.0124472
0.00873091
0.00330909
0.00323172
0.00635016
0.00771199
0.00908683
0.0105497
0.0120311
0.0134591
0.0147918
0.0160101
0.0171092
0.0180912
0.0189611
0.0197246
0.0203867
0.0209518
0.0214232
0.0218031
0.0220934
0.0222944
0.0224069
0.0224277
0.0992615
0.097481
0.0953448
0.0928552
0.0900467
0.0869642
0.0836446
0.0801062
0.076341
0.072303
0.067878
0.0627983
0.056376
0.0464609
0.0228406
0.00391925
0.00848644
0.0111356
0.0133362
0.0151966
0.016668
0.0177131
0.0183006
0.0183879
0.0178769
0.0165766
0.0141516
0.00991933
0.00371787
0.00322507
0.00626776
0.00768027
0.00914535
0.0106902
0.0122233
0.013677
0.0150221
0.0162503
0.0173627
0.0183639
0.0192593
0.0200536
0.0207499
0.0213506
0.0218572
0.0222701
0.0225892
0.022813
0.0229408
0.0229684
0.0992847
0.0975937
0.0956003
0.0932991
0.0907083
0.087857
0.0847717
0.0814665
0.0779342
0.0741318
0.0699459
0.0650993
0.0588596
0.0489097
0.0242866
0.00415339
0.00912414
0.0122028
0.0147415
0.0168044
0.0183752
0.0194681
0.0200927
0.020229
0.0197963
0.0185905
0.0161974
0.0116508
0.004492
0.00314146
0.00598217
0.0075744
0.00921115
0.0108619
0.0124397
0.0138997
0.0152358
0.0164543
0.0175635
0.0185708
0.0194814
0.0202984
0.0210228
0.0216548
0.0221936
0.0226375
0.0229842
0.0232305
0.0233735
0.0234084
0.0993063
0.0976911
0.0958139
0.0936659
0.0912558
0.088602
0.0857233
0.0826306
0.0793176
0.0757455
0.0718059
0.0672234
0.0612443
0.0514067
0.0258089
0.0043728
0.0099383
0.0136467
0.0165518
0.0187577
0.0203467
0.021413
0.0220136
0.0221592
0.0217917
0.0207231
0.0185114
0.0139721
0.00570456
0.00307524
0.00554034
0.00747479
0.00937172
0.0111386
0.01273
0.0141611
0.0154571
0.0166408
0.0177272
0.018725
0.0196387
0.0204692
0.0212146
0.0218726
0.0224395
0.0229118
0.0232846
0.0235523
0.0237106
0.0237528
0.0993262
0.0977752
0.0959935
0.0939712
0.0917114
0.0892256
0.0865274
0.0836254
0.0805151
0.0771632
0.073473
0.0691862
0.0635701
0.0540804
0.0275169
0.00462816
0.0111703
0.0157623
0.0189497
0.021136
0.0226005
0.0235296
0.0240257
0.0241231
0.0237883
0.0228624
0.0209436
0.0168111
0.00733074
0.00274821
0.00500061
0.00759272
0.00980848
0.0116242
0.0131546
0.0144975
0.0157103
0.0168278
0.0178678
0.0188384
0.0197415
0.0205752
0.0213332
0.0220109
0.0226012
0.0230985
0.0234952
0.0237832
0.0239563
0.0240061
0.0993438
0.0978473
0.0961443
0.0942251
0.0920899
0.0897459
0.0872034
0.0844698
0.0815427
0.078396
0.0749496
0.0709824
0.0658452
0.057061
0.0295769
0.00489213
0.013617
0.0190433
0.0221241
0.023985
0.0251234
0.025782
0.0260777
0.0260585
0.0257017
0.0248914
0.0233169
0.0199018
0.00962254
0.00279422
0.00525696
0.00858356
0.0108086
0.0124416
0.0137723
0.0149414
0.0160166
0.0170312
0.0179984
0.0189217
0.0197992
0.020622
0.0213833
0.0220737
0.0226838
0.0232027
0.0236207
0.0239275
0.0241149
0.0241723
0.0993592
0.0979081
0.0962694
0.0944343
0.0924015
0.0901758
0.0877654
0.0851773
0.0824114
0.0794492
0.0762299
0.0725841
0.0680318
0.0605071
0.0322172
0.00996801
0.0195883
0.0240801
0.0261569
0.0272656
0.0278575
0.0281147
0.0281208
0.0279165
0.0274664
0.0267046
0.0254417
0.0229977
0.0146207
0.00654909
0.00899771
0.0112
0.0125749
0.0136528
0.014609
0.0155098
0.0163904
0.0172633
0.0181297
0.0189846
0.0198189
0.0206192
0.0213738
0.022069
0.0226918
0.0232274
0.0236636
0.0239872
0.024188
0.0242532
0.099372
0.0979579
0.096371
0.0946033
0.0926533
0.0905243
0.0882235
0.0857578
0.0831291
0.0803252
0.0773018
0.0739353
0.0699017
0.0639013
0.0474247
0.0327834
0.0305882
0.030619
0.0307872
0.0308048
0.0306931
0.0304575
0.0301151
0.0296613
0.0290626
0.0282634
0.0271545
0.0254323
0.0218645
0.0173298
0.015391
0.0148087
0.014842
0.0151594
0.0156311
0.0161948
0.0168337
0.0175306
0.0182697
0.0190349
0.0198091
0.0205737
0.0213106
0.022002
0.0226303
0.023178
0.0236291
0.0239678
0.024181
0.0242534
0.0993821
0.0979971
0.0964504
0.0947354
0.0928502
0.090798
0.0885853
0.0862191
0.0837027
0.0810281
0.0781612
0.0750082
0.0713247
0.0663914
0.0568035
0.0456737
0.0399381
0.0370386
0.0354282
0.0343429
0.0334905
0.0327373
0.0320179
0.0312872
0.0304988
0.0295973
0.0285014
0.0270468
0.0247708
0.0217014
0.0193329
0.0178505
0.0170645
0.01675
0.0167543
0.01696
0.0173352
0.0178326
0.0184224
0.0190787
0.0197765
0.0204913
0.0211993
0.0218777
0.0225047
0.0230591
0.0235214
0.0238727
0.0240971
0.0241761
0.0993895
0.0980259
0.0965087
0.0948325
0.0929957
0.0910016
0.0888565
0.0865678
0.0841393
0.0815652
0.0788174
0.0758203
0.0723796
0.0680656
0.0613565
0.05298
0.046599
0.0424022
0.0396209
0.037647
0.0361367
0.0348934
0.0338031
0.0327908
0.0317954
0.0307582
0.0296076
0.0282335
0.0264111
0.0240872
0.0218902
0.0201749
0.0189859
0.0182484
0.0178678
0.0177662
0.0178729
0.0181612
0.0185873
0.0191189
0.0197254
0.020377
0.0210447
0.0217008
0.022319
0.0228745
0.023344
0.0237053
0.0239396
0.024025
0.0993941
0.0980442
0.0965465
0.094896
0.0930922
0.0911385
0.0890419
0.0868096
0.084446
0.0819463
0.0792852
0.0763989
0.0731307
0.0691922
0.0638367
0.0572159
0.0512159
0.046603
0.0431753
0.0405815
0.038547
0.0368795
0.0354506
0.0341705
0.032969
0.0317842
0.0305497
0.0291807
0.0275505
0.0256098
0.0236409
0.0219219
0.0205619
0.019571
0.0189138
0.018546
0.0184236
0.0185032
0.0187598
0.0191559
0.0196586
0.0202347
0.0208509
0.0214753
0.0220772
0.0226278
0.0231003
0.0234689
0.0237116
0.0238029
0.0993959
0.0980524
0.0965641
0.094927
0.0931412
0.0912113
0.0891447
0.0869494
0.0846298
0.0821815
0.0795811
0.0767729
0.0736303
0.06995
0.0653407
0.0598181
0.054404
0.0497953
0.0460739
0.0430923
0.0406741
0.0386643
0.0369441
0.035423
0.0340283
0.0326975
0.0313686
0.0299715
0.0284249
0.0266897
0.0249009
0.0232433
0.0218257
0.0206931
0.0198478
0.0192729
0.0189467
0.018845
0.0189318
0.0191873
0.0195769
0.0200671
0.0206215
0.0212048
0.0217827
0.0223225
0.0227935
0.0231664
0.0234159
0.0235127
0.099395
0.0980504
0.0965618
0.0949256
0.0931434
0.0912211
0.0891674
0.0869909
0.0846967
0.0822804
0.0797203
0.0769676
0.0739217
0.0704351
0.0662882
0.0614844
0.056609
0.0521775
0.048373
0.0451773
0.0424987
0.0402288
0.0382705
0.036542
0.0349743
0.0335071
0.0320832
0.0306426
0.0291263
0.0275031
0.0258393
0.0242509
0.0228264
0.0216189
0.0206501
0.0199212
0.0194274
0.0191583
0.019097
0.0192088
0.0194793
0.0198755
0.0203591
0.0208925
0.0214388
0.0219615
0.0224265
0.0228007
0.0230553
0.023157
0.0993914
0.0980383
0.0965394
0.0948919
0.0930989
0.0911685
0.0891111
0.0869369
0.0846514
0.0822509
0.0797152
0.0770027
0.0740336
0.0706982
0.0668707
0.0625612
0.0581236
0.0539215
0.0501503
0.0468602
0.0440197
0.0415635
0.0394196
0.0375198
0.0358029
0.0342136
0.0326995
0.031209
0.029695
0.0281315
0.0265492
0.0250195
0.0236082
0.0223639
0.0213155
0.0204748
0.0198479
0.0194354
0.0192308
0.0192192
0.0193627
0.0196603
0.0200653
0.020541
0.0210482
0.0215478
0.0220021
0.0223744
0.0226322
0.0227382
0.0993852
0.0980161
0.0964965
0.0948248
0.0930062
0.0910517
0.0889746
0.0867868
0.0844952
0.0820972
0.0795755
0.0768928
0.0739847
0.0707711
0.06718
0.0632257
0.0591339
0.0551614
0.0514819
0.0481744
0.0452462
0.0426654
0.0403836
0.0383481
0.0365072
0.0348121
0.0332163
0.031675
0.0301485
0.0286138
0.0270826
0.0255976
0.0242049
0.0229447
0.021846
0.0209255
0.0201951
0.0196632
0.0193318
0.0191953
0.019229
0.0194212
0.0197412
0.020152
0.0206133
0.0210837
0.0215227
0.0218899
0.0221492
0.0222589
0.0993766
0.0979836
0.0964324
0.0947227
0.092863
0.0908682
0.0887553
0.086539
0.0842279
0.0818206
0.0793018
0.0766395
0.0737826
0.0706729
0.0672627
0.0635744
0.0597571
0.0559944
0.0524317
0.0491544
0.0461917
0.0435356
0.0411575
0.0390191
0.0370788
0.0352955
0.0336285
0.0320389
0.030493
0.0289689
0.0274685
0.0260154
0.0246408
0.0233757
0.0222459
0.0212691
0.0204598
0.0198306
0.0193891
0.0191374
0.0190684
0.0191554
0.0193864
0.0197268
0.020136
0.0205715
0.0209905
0.0213494
0.0216083
0.021721
0.0993656
0.0979406
0.0963457
0.0945828
0.0926651
0.0906128
0.0884478
0.0861884
0.0838453
0.0814184
0.0788943
0.0762457
0.0734314
0.0704075
0.0671459
0.063662
0.0600655
0.0564886
0.05305
0.0498306
0.0468705
0.0441774
0.0417376
0.0395254
0.0375092
0.035655
0.0339283
0.0322958
0.0307281
0.0292048
0.027722
0.0262909
0.024932
0.0236678
0.0225196
0.0215038
0.0206354
0.0199283
0.0193942
0.0190403
0.0188676
0.0188651
0.0189993
0.0192658
0.0196175
0.0200128
0.0204074
0.0207548
0.0210115
0.0211266
0.0993525
0.0978865
0.0962342
0.0944007
0.0924059
0.0902774
0.0880433
0.0857263
0.0833393
0.0808836
0.0783476
0.0757072
0.0729286
0.0699778
0.0668366
0.0635211
0.0601034
0.05669
0.0533734
0.0502276
0.0472956
0.0445942
0.0421211
0.0398605
0.0377895
0.0358813
0.034107
0.0324383
0.0308494
0.029322
0.0278488
0.0264338
0.0250884
0.0238284
0.0226703
0.0216282
0.0207159
0.0199485
0.0193381
0.0188958
0.0186277
0.0185321
0.0185832
0.0187691
0.0190586
0.0194088
0.0197748
0.0201076
0.0203601
0.0204771
0.0993372
0.0978203
0.0960943
0.0941697
0.0920757
0.08985
0.0875287
0.0851392
0.0826971
0.0802046
0.077651
0.0750146
0.0722664
0.069379
0.0663393
0.0631609
0.0598994
0.0566286
0.0534276
0.0503634
0.0474764
0.0447885
0.0423047
0.0400174
0.0379108
0.0359642
0.0341545
0.0324576
0.0308515
0.0293193
0.0278518
0.0264482
0.0251145
0.0238607
0.0226991
0.021641
0.0206984
0.0198847
0.019213
0.0186957
0.0183426
0.0181572
0.0181328
0.0182345
0.0184592
0.0187603
0.0190935
0.0194087
0.0196555
0.0197739
0.09932
0.0977405
0.0959208
0.0938796
0.0916601
0.0893133
0.0868849
0.084408
0.0819001
0.0793638
0.0767882
0.0741528
0.0714315
0.0686005
0.0656491
0.0625876
0.0594576
0.0563171
0.0532304
0.0502506
0.0474192
0.0447605
0.0422842
0.0399886
0.0378634
0.0358933
0.0340601
0.0323437
0.0307254
0.0291899
0.0277272
0.0263338
0.0250114
0.0237661
0.022606
0.0215398
0.0205774
0.0197304
0.0190111
0.0184322
0.0180056
0.0177391
0.017634
0.0176648
0.0178193
0.0180672
0.018364
0.0186588
0.0188982
0.0190177
0.0993009
0.0976446
0.0957053
0.0935153
0.0911379
0.0886421
0.0860853
0.0835058
0.0809225
0.0783367
0.0757366
0.073101
0.0704047
0.0676259
0.064754
0.0617961
0.0587833
0.0557611
0.0527808
0.0498889
0.0471224
0.0445061
0.0420527
0.0397643
0.0376357
0.0356561
0.0338112
0.0320845
0.0304603
0.028925
0.0274687
0.0260861
0.0247762
0.0235417
0.0223878
0.0213206
0.0203477
0.0194786
0.0187242
0.0180967
0.0176086
0.0172705
0.0170878
0.017054
0.0171361
0.0173288
0.0175859
0.0178577
0.0180883
0.0182087
0.0992803
0.0975285
0.0954347
0.0930533
0.0904777
0.0878005
0.0850923
0.0823956
0.0797287
0.0770902
0.0744651
0.0718302
0.0691597
0.0664316
0.0636345
0.0607719
0.0578671
0.0549555
0.0520785
0.0492758
0.0465807
0.0440171
0.0415992
0.0393321
0.0372139
0.0352377
0.0333928
0.0316655
0.0300429
0.0285131
0.0270666
0.0256972
0.0244023
0.0231821
0.0220391
0.0209773
0.0200023
0.0191215
0.0183438
0.0176802
0.0171429
0.0167438
0.0164918
0.0163888
0.0164109
0.0165439
0.0167582
0.0170043
0.017225
0.0173465
0.0992582
0.0973855
0.0950878
0.0924572
0.0896324
0.0867363
0.0838529
0.0810262
0.0782706
0.0755792
0.0729318
0.0703016
0.0676605
0.0649849
0.0622617
0.0594911
0.0566896
0.0538844
0.0511093
0.0483982
0.0457805
0.043279
0.0409081
0.0386748
0.03658
0.0346198
0.0327864
0.0310689
0.0294563
0.0279388
0.0265073
0.0251556
0.0238796
0.0226779
0.0215512
0.0205015
0.0195325
0.0186495
0.0178597
0.0171722
0.0165982
0.0161497
0.0158377
0.0156685
0.015637
0.0157083
0.0158783
0.0160967
0.0163064
0.0164296
0.0992351
0.0972041
0.0946285
0.091668
0.0885295
0.0853728
0.0822917
0.0793261
0.0764815
0.0737419
0.0710794
0.0684619
0.0658575
0.0632404
0.0605946
0.0579169
0.0552178
0.0525187
0.049847
0.0472314
0.0446979
0.0422675
0.0399548
0.0377679
0.0357093
0.0337776
0.031968
0.0302713
0.0286786
0.0271817
0.0257724
0.0244443
0.0231928
0.0220154
0.0209113
0.0198808
0.018926
0.0180504
0.0172593
0.01656
0.015962
0.0154766
0.0151156
0.0148885
0.0147989
0.0148212
0.0149424
0.0151309
0.0153288
0.0154548
0.0992118
0.0969625
0.0939926
0.0905873
0.0870554
0.0835949
0.080299
0.0771934
0.0742676
0.0714918
0.068828
0.0662368
0.0636817
0.0611334
0.0585729
0.0559933
0.0534011
0.050812
0.0482484
0.0457348
0.0432939
0.0409452
0.0387027
0.0365752
0.0345666
0.0326771
0.0309042
0.029241
0.0276797
0.0262136
0.0248355
0.0235393
0.02232
0.0211744
0.0201004
0.0190974
0.0181657
0.0173075
0.0165262
0.0158272
0.0152183
0.0147093
0.0143116
0.0140365
0.0138916
0.0138732
0.0139423
0.0141003
0.014286
0.0144168
0.0991898
0.0966163
0.0930571
0.0890428
0.085025
0.0812242
0.0777103
0.074478
0.0714915
0.0687024
0.0660601
0.0635165
0.0610297
0.0585665
0.0561051
0.0536354
0.0511597
0.0486899
0.0462439
0.0438427
0.0415063
0.0392524
0.0370946
0.0350419
0.033099
0.0312674
0.0295467
0.0279317
0.0264158
0.0249935
0.0236586
0.0224051
0.0212283
0.0201243
0.0190902
0.0181245
0.0172264
0.0163965
0.0156368
0.014951
0.0143449
0.0138266
0.0134061
0.0130952
0.0129043
0.0128407
0.0128712
0.0129944
0.0131672
0.0133062
0.0991728
0.096062
0.0915683
0.0867177
0.0821241
0.0779727
0.0742654
0.0709444
0.0679382
0.0651751
0.0625901
0.0601265
0.0577368
0.0553842
0.0530442
0.0507039
0.0483627
0.0460288
0.0437169
0.0414449
0.0392306
0.0370901
0.0350364
0.0330785
0.0312215
0.0294677
0.0278189
0.0262711
0.0248189
0.0234575
0.0221816
0.0209859
0.0198655
0.0188164
0.0178353
0.0169195
0.0160677
0.0152793
0.0145548
0.0138965
0.0133084
0.0127964
0.0123691
0.0120371
0.0118122
0.0117061
0.0117092
0.0117924
0.0119525
0.0121054
0.0991699
0.0950131
0.0889506
0.0829889
0.077784
0.0733365
0.0695157
0.066187
0.0632345
0.0605624
0.058092
0.0557587
0.0535107
0.0513088
0.0491263
0.0469486
0.0447726
0.042604
0.0404549
0.0383406
0.0362771
0.034279
0.0323587
0.030525
0.0287834
0.0271358
0.0255867
0.0241331
0.0227702
0.0214942
0.0203003
0.019184
0.0181405
0.0171656
0.0162557
0.0154077
0.0146195
0.0138895
0.0132174
0.0126039
0.0120515
0.0115643
0.0111487
0.0108136
0.0105708
0.0104309
0.0104105
0.0104592
0.0106042
0.0107797
0.0991976
0.0924863
0.0837507
0.0765038
0.0708446
0.0663058
0.0625586
0.0593801
0.0566134
0.0541441
0.0518846
0.0497664
0.0477362
0.0457542
0.0437935
0.0418388
0.0398858
0.0379385
0.0360067
0.0341039
0.0322442
0.0304411
0.0287059
0.0270476
0.0254714
0.0239778
0.0225743
0.0212587
0.0200272
0.0188762
0.0178018
0.0168
0.0158664
0.0149969
0.0141876
0.0134352
0.012737
0.0120909
0.0114957
0.0109513
0.0104585
0.0100201
0.00964037
0.00932563
0.0090877
0.00893013
0.00888864
0.00891385
0.00903746
0.0092478
0.0992673
0.0841777
0.0716273
0.063665
0.0582924
0.0542256
0.0509703
0.0482721
0.0459588
0.0439176
0.0420645
0.0403361
0.0386835
0.0370714
0.0354758
0.033883
0.0322885
0.0306953
0.0291118
0.027549
0.0260192
0.0245341
0.0231036
0.0217362
0.0204369
0.0192006
0.0180396
0.0169544
0.0159411
0.0149966
0.0141183
0.0133027
0.0125461
0.0118445
0.0111944
0.0105924
0.0100354
0.00952138
0.00904858
0.00861622
0.00822427
0.00787415
0.0075682
0.0073099
0.0071116
0.00696107
0.00691083
0.00692019
0.00700755
0.00726089
0.0963831
0.050513
0.0372753
0.0317008
0.0286337
0.0265208
0.024909
0.0236171
0.0225299
0.0215884
0.0207458
0.0199676
0.019226
0.0185021
0.0177825
0.0170587
0.0163275
0.0155894
0.0148481
0.0141092
0.013379
0.0126637
0.011969
0.0113001
0.0106601
0.0100498
0.0094759
0.00893804
0.00843422
0.0079626
0.00752221
0.00711191
0.00673034
0.00637597
0.00604715
0.00574241
0.00546027
0.00519968
0.0049596
0.00473966
0.00453961
0.00435943
0.00420178
0.00406268
0.00395905
0.00387339
0.00383551
0.00384632
0.0038624
0.00407374
)
;

boundaryField
{
    floor
    {
        type            kqRWallFunction;
        value           nonuniform List<scalar> 
50
(
0.0963833
0.0502712
0.0365201
0.0303097
0.0264993
0.0235325
0.0209831
0.0186702
0.0165073
0.0144484
0.0125049
0.0106071
0.00840277
0.00542085
0.00213868
0.000545582
0.00121396
0.0017302
0.00220871
0.00260841
0.00298225
0.0032278
0.00336496
0.00338852
0.00333169
0.00311011
0.00259519
0.00196775
0.00110532
0.000836558
0.00153743
0.00210902
0.00265317
0.00314094
0.00356961
0.00396883
0.00428917
0.00455492
0.00476989
0.00494249
0.00507801
0.00518399
0.00526579
0.00532924
0.0053795
0.00542174
0.00546401
0.00550233
0.00557771
0.00570243
)
;
    }
    ceiling
    {
        type            kqRWallFunction;
        value           nonuniform List<scalar> 
50
(
0.0963831
0.050513
0.0372753
0.0317008
0.0286337
0.0265208
0.024909
0.0236171
0.0225299
0.0215884
0.0207458
0.0199676
0.019226
0.0185021
0.0177825
0.0170587
0.0163275
0.0155894
0.0148481
0.0141092
0.013379
0.0126637
0.011969
0.0113001
0.0106601
0.0100498
0.0094759
0.00893804
0.00843422
0.0079626
0.00752221
0.00711191
0.00673034
0.00637597
0.00604715
0.00574241
0.00546027
0.00519968
0.0049596
0.00473966
0.00453961
0.00435943
0.00420178
0.00406268
0.00395905
0.00387339
0.00383551
0.00384632
0.0038624
0.00407374
)
;
    }
    inlet
    {
        type            fixedValue;
        value           uniform 0.1;
    }
    outlet
    {
        type            zeroGradient;
    }
    fixedWalls
    {
        type            empty;
    }
    baffleFacesThermoBaffle1D_master
    {
        type            kqRWallFunction;
        value           nonuniform List<scalar> 
16
(
0.000545582
0.000874538
0.00137701
0.0018224
0.00220852
0.00254959
0.00286193
0.00315313
0.00342544
0.00368071
0.00391925
0.00415339
0.0043728
0.00462816
0.00489213
0.00996801
)
;
    }
    baffleFacesThermoBaffle1D_slave
    {
        type            kqRWallFunction;
        value           nonuniform List<scalar> 
16
(
0.00213868
0.00534306
0.0081265
0.0105862
0.0128671
0.0148814
0.016689
0.0183567
0.0199206
0.0214037
0.0228406
0.0242866
0.0258089
0.0275169
0.0295769
0.0322172
)
;
    }
    baffleFacesThermoBaffle3D_master
    {
        type            kqRWallFunction;
        value           nonuniform List<scalar> 
16
(
0.000836558
0.00106545
0.00153252
0.0019692
0.00233489
0.00263502
0.00287617
0.00305984
0.00318605
0.00323172
0.00322507
0.00314146
0.00307524
0.00274821
0.00279422
0.00654909
)
;
    }
    baffleFacesThermoBaffle3D_slave
    {
        type            kqRWallFunction;
        value           nonuniform List<scalar> 
16
(
0.00110532
0.00142166
0.00186136
0.00219546
0.00246911
0.00263779
0.00278625
0.00292596
0.00307917
0.00330909
0.00371787
0.004492
0.00570456
0.00733074
0.00962254
0.0146207
)
;
    }
}


// ************************************************************************* //
