/*--------------------------------*- C++ -*----------------------------------*\
| =========                 |                                                 |
| \\      /  F ield         | OpenFOAM: The Open Source CFD Toolbox           |
|  \\    /   O peration     | Version:  v1906                                 |
|   \\  /    A nd           | Web:      www.OpenFOAM.com                      |
|    \\/     M anipulation  |                                                 |
\*---------------------------------------------------------------------------*/
FoamFile
{
    version     2.0;
    format      ascii;
    class       volScalarField;
    location    "2000";
    object      nut;
}
// * * * * * * * * * * * * * * * * * * * * * * * * * * * * * * * * * * * * * //

dimensions      [0 2 -1 0 0 0 0];


internalField   nonuniform List<scalar> 
2000
(
0.000435738
0.000314691
0.000268219
0.000244352
0.000228476
0.000215307
0.00020331
0.000191778
0.000180327
0.000168707
0.000156951
0.000144551
0.000128657
0.000103337
7.98872e-05
4.0352e-05
4.89044e-05
5.8383e-05
6.5963e-05
7.16829e-05
7.66466e-05
7.97386e-05
8.14139e-05
8.16979e-05
8.1008e-05
7.82651e-05
7.149e-05
6.22674e-05
5.74459e-05
4.98962e-05
5.49567e-05
6.43732e-05
7.21903e-05
7.85398e-05
8.37306e-05
8.82844e-05
9.17787e-05
9.45783e-05
9.67836e-05
9.85181e-05
9.9858e-05
0.000100893
0.000101684
0.000102292
0.000102772
0.000103172
0.000103571
0.000103937
0.000104639
0.00010578
0.00855129
0.00366974
0.00289367
0.00260068
0.00240438
0.00223905
0.00209023
0.0019531
0.00182407
0.00170065
0.00157708
0.00144166
0.00126456
0.000887521
0.00016415
6.64128e-05
0.000293843
0.000410632
0.000527622
0.000626315
0.000705692
0.000764891
0.000799966
0.000803884
0.000769168
0.000689044
0.000553693
0.000362069
8.46479e-05
7.32482e-05
0.000235792
0.000342114
0.000460697
0.000569216
0.000661143
0.000739828
0.000804901
0.000858333
0.000903626
0.000940951
0.000971984
0.000997585
0.00101891
0.00103688
0.00105242
0.00106659
0.00108038
0.0010951
0.00111066
0.00112304
0.0310605
0.0116336
0.00797571
0.00660247
0.00583453
0.00528621
0.00484652
0.00446532
0.00411587
0.00377846
0.00342819
0.00302185
0.0024628
0.00151682
0.00020244
8.33335e-05
0.000573578
0.000833443
0.00104447
0.00121782
0.00135625
0.00145044
0.00148971
0.00147585
0.0013907
0.00122778
0.000977679
0.000648735
9.6871e-05
8.7823e-05
0.000502916
0.000721856
0.000940037
0.00113865
0.00131572
0.00147454
0.00161314
0.00173202
0.00183447
0.00192149
0.00199536
0.00205776
0.0021106
0.00215553
0.00219419
0.00222818
0.00225891
0.00228751
0.00231275
0.00232841
0.0509986
0.0225962
0.0147921
0.0116331
0.00991686
0.00876233
0.00789072
0.00716359
0.00651196
0.00588719
0.00523736
0.00448437
0.0034865
0.00200306
0.000231054
9.5867e-05
0.000769608
0.00117882
0.00146733
0.00169314
0.00186257
0.00196951
0.00199371
0.00195401
0.00181923
0.00158766
0.0012534
0.00080707
0.000105219
9.95278e-05
0.00071374
0.00105404
0.00135652
0.00163076
0.00188062
0.00210798
0.00231119
0.00249026
0.00264733
0.00278377
0.00290181
0.00300346
0.00309084
0.00316586
0.00323038
0.00328597
0.00333405
0.00337488
0.00340665
0.00342324
0.0630362
0.0336456
0.0224472
0.0173093
0.0144299
0.0125297
0.0111095
0.00995671
0.00893895
0.0079711
0.00697022
0.00582658
0.00437219
0.00239439
0.000254733
0.000105535
0.00090777
0.00144846
0.00180525
0.00206775
0.00225784
0.00237041
0.00238234
0.00231544
0.00213316
0.00183475
0.00141718
0.000878411
0.000111589
0.000108371
0.000859656
0.00132389
0.00170026
0.00203798
0.00234829
0.00263365
0.00289302
0.00312597
0.00333359
0.00351707
0.0036783
0.0038192
0.00394177
0.00404787
0.00413915
0.00421698
0.00428224
0.00433469
0.00437227
0.00438975
0.0701496
0.0431546
0.0300546
0.0232143
0.0191618
0.0164466
0.0144283
0.0127889
0.0113586
0.0100066
0.00861895
0.00706043
0.00515654
0.00272213
0.000273947
0.000113392
0.00100961
0.00165803
0.00207139
0.00236537
0.00257173
0.00268859
0.00269098
0.00259986
0.00237496
0.00201571
0.00151784
0.00090484
0.000115342
0.000115126
0.000967779
0.00152613
0.00197037
0.00236236
0.00272372
0.00305918
0.00336827
0.00365005
0.00390467
0.00413279
0.00433581
0.00451529
0.00467286
0.00481009
0.00492831
0.0050285
0.00511098
0.00517503
0.00521859
0.00523759
0.074604
0.0507901
0.037037
0.0289809
0.0238968
0.0203887
0.0177522
0.0156095
0.0137348
0.0119727
0.0101771
0.00819637
0.00585427
0.00299872
0.000290107
0.000120138
0.00109092
0.00182164
0.00228408
0.00260674
0.00283043
0.00295564
0.00295489
0.00284578
0.00258578
0.00217087
0.00159699
0.000904318
0.000118547
0.000120281
0.00103574
0.00166552
0.00216772
0.00260669
0.00301255
0.0033926
0.00374686
0.0040738
0.00437269
0.00464352
0.00488698
0.00510415
0.0052962
0.00546431
0.0056094
0.00573198
0.00583189
0.00590788
0.00595801
0.00597912
0.0775723
0.0567649
0.0431397
0.0343529
0.0284534
0.0242352
0.0210056
0.0183581
0.016035
0.0138505
0.0116395
0.00923736
0.0064729
0.00323645
0.000304257
0.000126103
0.00115599
0.00195031
0.00245542
0.0028073
0.00305299
0.00319382
0.0032
0.00307992
0.00279521
0.00233132
0.00168393
0.0008982
0.000121486
0.000124066
0.00106414
0.00174546
0.00229407
0.00277423
0.00322
0.00364113
0.00403773
0.00440732
0.00474845
0.00506033
0.005343
0.00559696
0.00582294
0.0060216
0.0061934
0.00633839
0.00645592
0.00654432
0.00660177
0.00662547
0.0796524
0.0614132
0.0483213
0.0391897
0.0327015
0.0278882
0.0241193
0.0209902
0.0182271
0.0156241
0.0130021
0.0101899
0.00702651
0.00344278
0.000316953
0.000131436
0.00120577
0.0020512
0.00259413
0.00297822
0.00325283
0.00341785
0.00344146
0.00332232
0.00302221
0.00251747
0.00180016
0.000912937
0.00012463
0.000126602
0.00105186
0.00176871
0.00235446
0.00286969
0.00335251
0.0038125
0.00424905
0.00465962
0.00504139
0.00539288
0.00571363
0.00600354
0.0062628
0.0064916
0.00668989
0.00685726
0.00699264
0.00709399
0.00715937
0.00718596
0.081166
0.0650393
0.0526476
0.0434399
0.0365635
0.0312777
0.0270398
0.0234685
0.0202884
0.0172836
0.0142661
0.0110631
0.00752668
0.00362582
0.00032854
0.000136247
0.00124233
0.00212853
0.00270639
0.00312795
0.00343975
0.00363727
0.0036906
0.00358303
0.00327622
0.00274051
0.00195746
0.000959607
0.0001292
0.000127515
0.00100554
0.00173883
0.00235076
0.00289819
0.00341691
0.0039151
0.00439082
0.00484011
0.00526015
0.00565007
0.00600765
0.00633247
0.00662421
0.00688256
0.00710701
0.00729669
0.00745011
0.00756504
0.00763883
0.00766855
0.0822981
0.0678844
0.0562253
0.0471101
0.0400049
0.0343617
0.0297308
0.0257672
0.0222048
0.0188253
0.0154374
0.0118693
0.00798687
0.00379433
0.000339388
0.000140594
0.00126853
0.00218451
0.00279737
0.00326396
0.00362173
0.00386002
0.00395105
0.00386466
0.00356319
0.00300558
0.00216128
0.00104406
0.000136942
0.000127385
0.000934646
0.00166098
0.00229155
0.0028691
0.00342348
0.00395904
0.00447227
0.00495882
0.0054155
0.00584039
0.00623309
0.0065914
0.0069145
0.00720159
0.00745169
0.00766346
0.00783501
0.00796369
0.00804637
0.00807996
0.0831618
0.0701298
0.0591668
0.0502387
0.0430222
0.0371213
0.0321722
0.0278718
0.0239698
0.020252
0.0165271
0.0126253
0.00842397
0.00395862
0.000349966
0.000144734
0.00129079
0.00222023
0.00287358
0.00339481
0.00380621
0.00409167
0.00422344
0.00416728
0.0038817
0.00331467
0.00241613
0.00117301
0.000150509
0.000125729
0.000824786
0.00153624
0.00218842
0.00279724
0.00338746
0.00395849
0.00450595
0.00502602
0.00551572
0.00597316
0.00639763
0.00678738
0.00714023
0.00745491
0.00772986
0.00796335
0.00815295
0.00829554
0.00838746
0.00842538
0.0838296
0.0719097
0.0615743
0.0528775
0.0456316
0.0395546
0.0343571
0.029777
0.0255841
0.021572
0.0175515
0.0133538
0.00886161
0.00413411
0.000360768
0.000148509
0.00130316
0.00224065
0.00294712
0.00353249
0.00400147
0.00433551
0.00450897
0.00448815
0.00422818
0.00366616
0.00272858
0.00136531
0.000169594
0.000124409
0.000679929
0.00138319
0.00206378
0.00270729
0.00333121
0.00393224
0.00450719
0.00505426
0.00557115
0.00605658
0.00650888
0.00692708
0.0073074
0.00764804
0.0079467
0.00820129
0.0084087
0.00856524
0.00866665
0.00870921
0.08435
0.073323
0.0635351
0.055081
0.0478594
0.0416711
0.0362875
0.0314846
0.0270534
0.0227976
0.0185316
0.0140853
0.00933527
0.00434368
0.000372514
0.000152783
0.00128587
0.00226143
0.00304062
0.00369484
0.0042186
0.00459617
0.00480795
0.00482318
0.00459715
0.00405626
0.00310267
0.0016425
0.000192243
0.000117619
0.000541571
0.00124421
0.00195909
0.00263734
0.00328527
0.00390376
0.00449391
0.00505754
0.00559279
0.0060992
0.00657466
0.00701694
0.00742156
0.00778599
0.0081067
0.00838152
0.00860633
0.00877673
0.00888777
0.0089352
0.0847564
0.0744424
0.06512
0.0569
0.0497353
0.0434858
0.037971
0.0330003
0.0283855
0.0239426
0.0194912
0.014858
0.00990644
0.00465469
0.000386206
0.0001571
0.00125096
0.00232509
0.00319138
0.0039068
0.00447178
0.00488096
0.00512151
0.00516903
0.00498069
0.00447938
0.0035384
0.00199545
0.000220246
0.000118597
0.000474349
0.00121456
0.00194827
0.00263906
0.00328583
0.00389893
0.00448505
0.00505053
0.00559185
0.00610998
0.00660145
0.00706121
0.00748602
0.00787147
0.00821371
0.00850781
0.00874938
0.00893339
0.00905408
0.00910659
0.0850719
0.0753213
0.0663852
0.0583787
0.0512882
0.0450154
0.039417
0.0343305
0.0295878
0.0250188
0.0204524
0.015718
0.0106596
0.00520912
0.000403075
0.000224237
0.0013435
0.00252709
0.00345712
0.0042005
0.00477953
0.00519834
0.00545174
0.00552446
0.00536967
0.00492888
0.00405012
0.00244606
0.000271502
0.000181568
0.000617707
0.00140235
0.00211905
0.00276407
0.00336567
0.00394072
0.00449944
0.00504619
0.00557879
0.00609747
0.00659545
0.00706702
0.00750731
0.00791037
0.00827087
0.00858239
0.00883967
0.00903676
0.00916699
0.00922484
0.0853127
0.0759982
0.0673735
0.0595527
0.052543
0.0462751
0.0406336
0.0354797
0.0306637
0.0260313
0.0214268
0.0166998
0.0117297
0.00650826
0.00152087
0.00130202
0.00206417
0.00303716
0.00390572
0.00460969
0.00515989
0.00555782
0.00580419
0.00588455
0.00576303
0.00538852
0.00465095
0.00338788
0.00156334
0.00136528
0.00160268
0.0020353
0.00253007
0.0030358
0.00354007
0.00404152
0.00454673
0.00505541
0.00556429
0.00606904
0.0065637
0.00703964
0.00748992
0.00790636
0.00828183
0.00860898
0.008881
0.00909074
0.00923039
0.00929339
0.0854901
0.0765007
0.0681164
0.0604492
0.053519
0.0472762
0.0416262
0.0364488
0.0316108
0.0269748
0.022405
0.0177807
0.0130314
0.0082341
0.00375001
0.00295277
0.00330446
0.00392454
0.00457989
0.00515654
0.00562192
0.00596511
0.00617956
0.00625114
0.0061516
0.00583546
0.00524796
0.00428957
0.00302949
0.00259628
0.00259553
0.00278211
0.00306928
0.00341358
0.00379575
0.00419809
0.00462993
0.00508321
0.00555295
0.0060323
0.00651235
0.00698411
0.00743792
0.00786304
0.00825029
0.00859077
0.00887608
0.0090977
0.00924643
0.00931427
0.0856113
0.076847
0.0686353
0.0610867
0.0542291
0.0480256
0.0423957
0.0372334
0.0324198
0.0278332
0.0233584
0.0189046
0.0144416
0.0100859
0.00623215
0.0049476
0.00478463
0.00504389
0.00543114
0.00582393
0.00616249
0.00641913
0.006578
0.00662266
0.00652931
0.00626404
0.0057886
0.00506997
0.0041911
0.00367685
0.00350987
0.00351922
0.00364052
0.00383874
0.0040953
0.00440036
0.00474381
0.00512953
0.00554765
0.00599011
0.0064465
0.00690493
0.00735498
0.00778359
0.00817894
0.00853017
0.00882713
0.0090597
0.00921714
0.00928992
0.0856808
0.0770478
0.0689425
0.0614757
0.0546795
0.0485242
0.0429381
0.0378244
0.0330752
0.0285822
0.0242483
0.0200063
0.0158525
0.0119146
0.00856564
0.00697183
0.00637239
0.00626994
0.00638742
0.00657463
0.00676214
0.00691014
0.00699456
0.00699579
0.00689222
0.00665805
0.00626769
0.00571226
0.00506549
0.00456289
0.00430295
0.00419168
0.00418831
0.00426688
0.0044128
0.00461861
0.00488003
0.00518988
0.00554801
0.0059443
0.00636798
0.00680606
0.00724452
0.00767088
0.00807028
0.00842942
0.00873616
0.00897863
0.00914434
0.00922204
0.0857004
0.0771073
0.0690426
0.0616186
0.0548695
0.0487679
0.0432447
0.0382082
0.0335571
0.0291929
0.0250319
0.0210232
0.0171759
0.0136096
0.0106287
0.00888539
0.00791632
0.00752204
0.00738095
0.00736507
0.00739354
0.00742151
0.00741923
0.00736432
0.00723607
0.00701352
0.00667887
0.00623055
0.00571834
0.00527051
0.00496378
0.0047752
0.00468196
0.0046673
0.00472119
0.00483877
0.00501832
0.00525858
0.00555102
0.00589482
0.00627829
0.0066887
0.00711045
0.00752756
0.00792657
0.00829054
0.00860502
0.00885619
0.00902971
0.00911223
0.0856694
0.0770239
0.0689322
0.0615108
0.0547926
0.0487473
0.043303
0.0383681
0.0338429
0.0296347
0.0256681
0.0219007
0.0183445
0.0150986
0.0123876
0.0105684
0.00937372
0.00872784
0.00836085
0.00815254
0.00802654
0.00793254
0.00783816
0.00771918
0.00755528
0.00732824
0.00702433
0.00664302
0.00621567
0.0058144
0.00549425
0.0052604
0.00510536
0.00502077
0.0050011
0.00504407
0.00515022
0.00532047
0.0055542
0.00584013
0.00617769
0.0065544
0.00695337
0.00735753
0.0077499
0.00811542
0.00843542
0.00869402
0.0088748
0.00896206
0.0855849
0.0767894
0.0686003
0.0611394
0.0544352
0.0484483
0.0430984
0.0382858
0.0339096
0.0298785
0.0261198
0.0225945
0.0193098
0.0163394
0.0138374
0.0119993
0.0106711
0.00983178
0.00927657
0.00890028
0.0086313
0.00842093
0.00823512
0.00804901
0.00784259
0.00759924
0.00730703
0.00696451
0.00658967
0.00622403
0.00590523
0.00564713
0.00545143
0.00531613
0.00523951
0.00522158
0.00526461
0.00537148
0.00554405
0.0057806
0.00606517
0.00640405
0.00677491
0.00716108
0.00754385
0.00790595
0.00822901
0.00849363
0.00868112
0.00877307
0.0854414
0.0763896
0.0680284
0.0604851
0.0537784
0.0478523
0.0426102
0.0379404
0.0337346
0.0298973
0.026357
0.0230715
0.0200392
0.0173096
0.014983
0.0131668
0.011768
0.0107924
0.0100899
0.00957374
0.0091805
0.00886465
0.00859304
0.00834111
0.00808939
0.00782228
0.00752869
0.00720524
0.00686183
0.00652149
0.00620935
0.0059397
0.00571844
0.00554758
0.00542816
0.00536194
0.00535243
0.00540391
0.00552035
0.00570315
0.00594297
0.00623828
0.00657624
0.00693975
0.0073093
0.00766486
0.00798742
0.00825654
0.00845014
0.0085469
0.0852306
0.0758032
0.0671896
0.0595213
0.0527986
0.0469389
0.0418207
0.0373136
0.033297
0.0296691
0.0263533
0.0233043
0.0205105
0.0179997
0.0158308
0.0140657
0.0126425
0.0115809
0.0107712
0.0101452
0.00964941
0.00924288
0.00889505
0.00858229
0.00828612
0.00799184
0.00768878
0.0073721
0.00704567
0.00672241
0.00641784
0.00614385
0.00590753
0.0057127
0.0055621
0.00545868
0.00540669
0.00541118
0.00547743
0.00560909
0.00580595
0.00605636
0.00635794
0.00669477
0.0070469
0.00739345
0.00771329
0.00798431
0.00818329
0.00828547
0.0849403
0.0749998
0.0660477
0.058214
0.0514676
0.0456856
0.0407113
0.0363888
0.0325808
0.0291762
0.0260917
0.0232777
0.0207118
0.0184046
0.0163888
0.0146952
0.0132838
0.0121782
0.0112983
0.0105925
0.0100173
0.00953739
0.0091254
0.00875965
0.00842292
0.00810148
0.00778504
0.00746776
0.00714981
0.00683732
0.00653967
0.00626542
0.0060211
0.00581101
0.00563863
0.00550748
0.0054222
0.00538794
0.00541091
0.00549645
0.00564747
0.00586084
0.00612006
0.00642724
0.00675811
0.00709208
0.00740659
0.00767796
0.00788111
0.00798801
0.0845537
0.0739386
0.064556
0.0565224
0.0497541
0.0440699
0.0392656
0.0351527
0.0315742
0.0284075
0.0255639
0.0229822
0.0206382
0.0185267
0.0166619
0.0150575
0.0136884
0.0125729
0.0116555
0.0108984
0.010267
0.00973212
0.00926987
0.00886104
0.00849003
0.00814424
0.00781388
0.00749254
0.00717792
0.00687235
0.00658083
0.00630905
0.00606174
0.005843
0.00565637
0.00550545
0.00539459
0.00532964
0.00531649
0.00536149
0.00546946
0.00564173
0.00586583
0.00613826
0.00644426
0.00676216
0.00706859
0.00733841
0.00754451
0.00765568
0.0840467
0.0725642
0.0626554
0.0543988
0.0476255
0.0420715
0.0374712
0.0335974
0.0302707
0.0273569
0.0247602
0.0224172
0.02029
0.0183709
0.0166598
0.0151554
0.0138575
0.012759
0.0118322
0.0110501
0.0103851
0.00981374
0.00931599
0.00887538
0.00847814
0.00811293
0.00777072
0.007445
0.00713217
0.00683188
0.00654618
0.0062783
0.00603158
0.00580927
0.00561452
0.00545069
0.00532181
0.0052331
0.00519059
0.00520091
0.00527005
0.00540144
0.00559342
0.00582782
0.0061065
0.00640501
0.0067004
0.0069665
0.00717427
0.00728933
0.0833858
0.0708027
0.0602732
0.0517906
0.0450508
0.0396752
0.0353224
0.0317216
0.0286711
0.0260257
0.0236844
0.0215806
0.0196745
0.0179454
0.0163908
0.0150019
0.0137864
0.0127319
0.0118231
0.0110393
0.0103613
0.00977147
0.0092532
0.0087929
0.0083787
0.0080007
0.00765076
0.00732255
0.00701188
0.00671687
0.0064376
0.00617545
0.00593239
0.00571072
0.00551294
0.00534191
0.00520117
0.00509531
0.00502996
0.00501162
0.00504688
0.00514091
0.00529596
0.00549924
0.00574607
0.00602182
0.00630307
0.00656306
0.00677107
0.00688961
0.0825222
0.0685544
0.0573215
0.0486432
0.042005
0.0368749
0.0328227
0.0295329
0.0267835
0.0244217
0.022344
0.0204824
0.018795
0.0172595
0.0158646
0.0146062
0.0134838
0.0124927
0.011622
0.0108585
0.0101878
0.00959638
0.00907253
0.00860492
0.00818383
0.00780081
0.00744872
0.00712168
0.00681537
0.00652713
0.00625579
0.00600142
0.00576485
0.00554746
0.00535103
0.00517781
0.00503072
0.00491367
0.00483161
0.00479061
0.00479732
0.00485788
0.00497624
0.00515049
0.00536297
0.00561355
0.00587755
0.00612879
0.0063354
0.00645695
0.081383
0.0656847
0.0536983
0.0449066
0.0384756
0.0336783
0.0299881
0.0270488
0.0246247
0.0225598
0.020752
0.0191349
0.0176665
0.016323
0.0150938
0.0139723
0.0129582
0.0120461
0.0112309
0.0105044
0.00985794
0.00928165
0.00876656
0.0083041
0.00788655
0.00750697
0.00715936
0.00683844
0.00654008
0.00626129
0.00600024
0.00575611
0.00552888
0.00531914
0.00512797
0.00495701
0.00480853
0.00468568
0.00459266
0.00453484
0.0045185
0.00455017
0.00463518
0.00477588
0.00495999
0.00518117
0.00542459
0.00566415
0.00586744
0.00599141
0.0798554
0.0620129
0.0492933
0.0405463
0.034472
0.0301124
0.0268495
0.0242987
0.0222202
0.0204617
0.0189269
0.0175546
0.0163028
0.0151527
0.0140905
0.0131107
0.012212
0.0113919
0.0106478
0.00997512
0.00936864
0.00882214
0.00832937
0.00788413
0.00748058
0.00711331
0.0067775
0.00646857
0.00618272
0.00591704
0.00566939
0.00543844
0.00522357
0.00502475
0.0048425
0.00467784
0.00453243
0.00440871
0.00431007
0.00424105
0.00420725
0.00421504
0.0042705
0.00437773
0.00453516
0.00472429
0.00494448
0.00516924
0.00536692
0.00549253
0.0777547
0.0572993
0.0440033
0.0355614
0.0300366
0.0262296
0.0234557
0.0213236
0.0196039
0.018155
0.0168917
0.0157598
0.0147232
0.0137628
0.0128675
0.0120323
0.0112557
0.0105372
0.00987596
0.00927021
0.00871734
0.0082139
0.00775601
0.00733953
0.0069603
0.0066143
0.00629801
0.00600751
0.00573949
0.00549129
0.00526075
0.00504635
0.00484708
0.00466249
0.00449264
0.00433806
0.00419983
0.00407976
0.00398045
0.00390555
0.00385983
0.00384906
0.00387943
0.00395629
0.00408247
0.00424496
0.00443724
0.00464357
0.00483287
0.00495901
0.0747601
0.0512425
0.0377678
0.0300112
0.0252569
0.0221109
0.0198732
0.0181765
0.016818
0.0156721
0.0146741
0.0137745
0.012945
0.0121693
0.0114383
0.010748
0.0100976
0.00948748
0.0089183
0.00839018
0.00790249
0.00745386
0.00704231
0.00666541
0.00632045
0.00600461
0.00571565
0.00545041
0.00520598
0.00498014
0.00477092
0.00457677
0.00439656
0.00422958
0.00407554
0.0039346
0.00380739
0.00369512
0.00359971
0.00352395
0.00347167
0.0034478
0.00345807
0.00350829
0.00360286
0.00374057
0.00390095
0.0040857
0.00426328
0.00438839
0.0702748
0.0435134
0.0306368
0.0240471
0.0202749
0.017867
0.016185
0.0149192
0.0139079
0.0130537
0.0123038
0.0116227
0.0109888
0.0103891
0.00981697
0.00926938
0.00874622
0.00824863
0.00777814
0.00733608
0.00692317
0.00653952
0.00618457
0.00585724
0.00555596
0.0052789
0.00502501
0.00479192
0.0045771
0.0043788
0.0041954
0.0040255
0.00386797
0.00372201
0.00358714
0.00346326
0.00335063
0.00325002
0.00316272
0.00309077
0.00303706
0.00300551
0.00300101
0.00302913
0.00309517
0.00320283
0.00333586
0.00349323
0.00365464
0.00377634
0.0631278
0.0339062
0.0228759
0.0179382
0.0152857
0.0136322
0.0124838
0.0116224
0.0109282
0.0103374
0.00981295
0.00933094
0.00887642
0.00844048
0.00801839
0.00760839
0.00721083
0.00682722
0.00645952
0.00610967
0.00577916
0.00546899
0.00517956
0.00491075
0.00466183
0.00443167
0.0042203
0.00402608
0.00384685
0.00368136
0.00352841
0.00338685
0.00325571
0.00313421
0.00302181
0.00291824
0.00282355
0.00273813
0.00266282
0.00259896
0.00254861
0.00251465
0.00250086
0.002512
0.00255332
0.00262988
0.00273728
0.00286088
0.00300133
0.0031161
0.0510553
0.0227636
0.0150762
0.0120664
0.0105201
0.00954847
0.00887372
0.00835681
0.00793356
0.00756772
0.00723758
0.00692912
0.00663332
0.00634472
0.00606049
0.00577974
0.00550308
0.00523202
0.00496852
0.00471455
0.00447183
0.00424174
0.00402513
0.00382247
0.00363355
0.00345758
0.00329557
0.00314638
0.0030084
0.00288079
0.00276279
0.0026536
0.00255248
0.00245877
0.00237198
0.0022918
0.00221814
0.00215115
0.00209131
0.00203943
0.00199682
0.00196541
0.00194774
0.00194746
0.00196886
0.00201579
0.00209433
0.00218264
0.00229493
0.00239698
0.0310839
0.0117225
0.00813862
0.00686319
0.00620495
0.00577156
0.00545343
0.00520107
0.00498825
0.00479972
0.00462569
0.00445956
0.00429689
0.00413493
0.00397228
0.00380859
0.00364443
0.00348094
0.00331961
0.00316199
0.00300952
0.00286341
0.00272453
0.00259356
0.00247053
0.00235456
0.00224741
0.00214831
0.00205629
0.00197091
0.00189183
0.0018186
0.00175075
0.00168782
0.00162946
0.0015754
0.0015255
0.00147981
0.00143851
0.00140206
0.00137111
0.00134683
0.00133046
0.00132455
0.00133177
0.00135331
0.00139935
0.00145173
0.00152686
0.00160671
0.00855381
0.00370584
0.00296861
0.00272162
0.0025794
0.00246457
0.00236818
0.00228662
0.00221463
0.00214878
0.0020864
0.00202546
0.00196448
0.00190255
0.00183914
0.00177411
0.00170772
0.00164047
0.00157303
0.00150617
0.00144056
0.00137689
0.00131562
0.00125725
0.00120182
0.0011481
0.00109784
0.00105101
0.0010072
0.000966342
0.000928405
0.000893232
0.000860624
0.000830354
0.000802238
0.000776124
0.000751928
0.000729617
0.000709254
0.000690983
0.000674999
0.000661861
0.000651697
0.000646073
0.000645461
0.000648468
0.000663732
0.000680809
0.000710595
0.000754359
0.000435738
0.000315447
0.000270978
0.000249896
0.0002375
0.000228569
0.000221514
0.000215693
0.00021067
0.000206221
0.000202157
0.000198329
0.000194611
0.000190911
0.000187162
0.000183313
0.000179341
0.00017524
0.000171023
0.000166713
0.000162341
0.000157942
0.000153548
0.000149196
0.000144909
0.0001407
0.000136624
0.00013269
0.000128896
0.000125241
0.000121729
0.000118363
0.000115145
0.000112073
0.000109146
0.000106361
0.000103716
0.000101211
9.88469e-05
9.66299e-05
9.45678e-05
9.26698e-05
9.09763e-05
8.94514e-05
8.82966e-05
8.73311e-05
8.68736e-05
8.69837e-05
8.71612e-05
8.94884e-05
)
;

boundaryField
{
    floor
    {
        type            nutkWallFunction;
        Cmu             0.09;
        kappa           0.41;
        E               9.8;
        value           nonuniform List<scalar> 
50
(
5.14101e-05
3.53517e-05
2.89843e-05
2.5658e-05
2.34213e-05
2.15496e-05
1.98306e-05
1.81646e-05
1.64958e-05
1.47853e-05
1.30344e-05
1.11621e-05
8.72116e-06
4.72822e-06
0
0
0
0
0
0
3.1891e-07
8.26345e-07
1.09667e-06
1.13606e-06
1.01404e-06
5.53312e-07
0
0
0
0
0
0
0
7.3987e-07
1.59677e-06
2.34266e-06
2.91124e-06
3.3649e-06
3.72129e-06
4.00112e-06
4.21724e-06
4.38424e-06
4.51204e-06
4.6106e-06
4.68829e-06
4.75329e-06
4.81786e-06
4.87603e-06
4.98896e-06
5.17345e-06
)
;
    }
    ceiling
    {
        type            nutkWallFunction;
        Cmu             0.09;
        kappa           0.41;
        E               9.8;
        value           nonuniform List<scalar> 
50
(
5.14097e-05
3.54538e-05
2.93658e-05
2.64341e-05
2.46948e-05
2.34342e-05
2.24336e-05
2.16046e-05
2.08868e-05
2.0249e-05
1.96647e-05
1.91129e-05
1.85755e-05
1.80393e-05
1.74944e-05
1.69335e-05
1.63528e-05
1.57515e-05
1.51311e-05
1.44947e-05
1.38469e-05
1.31923e-05
1.25362e-05
1.18834e-05
1.12379e-05
1.06013e-05
9.98221e-06
9.38214e-06
8.80097e-06
8.23861e-06
7.69596e-06
7.17372e-06
6.67228e-06
6.19171e-06
5.73187e-06
5.29264e-06
4.87387e-06
4.47582e-06
4.09883e-06
3.74403e-06
3.41303e-06
3.10745e-06
2.83415e-06
2.58775e-06
2.40109e-06
2.24413e-06
2.17407e-06
2.19263e-06
2.22191e-06
2.602e-06
)
;
    }
    inlet
    {
        type            calculated;
        value           uniform 0.09;
    }
    outlet
    {
        type            calculated;
        value           nonuniform List<scalar> 
40
(
0.00010578
0.00112304
0.00232841
0.00342324
0.00438975
0.00523759
0.00597912
0.00662547
0.00718596
0.00766855
0.00807996
0.00842538
0.00870921
0.0089352
0.00910659
0.00922484
0.00929339
0.00931427
0.00928992
0.00922204
0.00911223
0.00896206
0.00877307
0.0085469
0.00828547
0.00798801
0.00765568
0.00728933
0.00688961
0.00645695
0.00599141
0.00549253
0.00495901
0.00438839
0.00377634
0.0031161
0.00239698
0.00160671
0.000754359
8.94884e-05
)
;
    }
    fixedWalls
    {
        type            empty;
    }
    baffleFacesThermoBaffle1D_master
    {
        type            nutkWallFunction;
        Cmu             0.09;
        kappa           0.41;
        E               9.8;
        value           nonuniform List<scalar> 
16
(
0
0
9.38958e-07
3.04976e-06
4.6406e-06
5.91203e-06
6.98983e-06
7.93335e-06
8.77018e-06
9.5199e-06
1.01936e-05
1.08322e-05
1.14119e-05
1.20662e-05
1.272e-05
2.25444e-05
)
;
    }
    baffleFacesThermoBaffle1D_slave
    {
        type            nutkWallFunction;
        Cmu             0.09;
        kappa           0.41;
        E               9.8;
        value           nonuniform List<scalar> 
16
(
3.99631e-06
1.34654e-05
1.91808e-05
2.33403e-05
2.67172e-05
2.9421e-05
3.16726e-05
3.36286e-05
3.5372e-05
3.69542e-05
3.84281e-05
3.98589e-05
4.13131e-05
4.28881e-05
4.4714e-05
4.69653e-05
)
;
    }
    baffleFacesThermoBaffle3D_master
    {
        type            nutkWallFunction;
        Cmu             0.09;
        kappa           0.41;
        E               9.8;
        value           nonuniform List<scalar> 
16
(
0
0
0
1.5439e-06
3.12116e-06
4.30331e-06
5.18997e-06
5.83252e-06
6.25674e-06
6.40763e-06
6.38349e-06
6.11261e-06
5.89306e-06
4.76999e-06
4.95477e-06
1.51032e-05
)
;
    }
    baffleFacesThermoBaffle3D_slave
    {
        type            nutkWallFunction;
        Cmu             0.09;
        kappa           0.41;
        E               9.8;
        value           nonuniform List<scalar> 
16
(
0
0
9.18703e-07
2.40634e-06
3.52671e-06
4.17684e-06
4.72026e-06
5.20827e-06
5.72299e-06
6.46965e-06
7.73685e-06
9.95927e-06
1.30661e-05
1.66805e-05
2.09871e-05
2.8502e-05
)
;
    }
}


// ************************************************************************* //
