/*--------------------------------*- C++ -*----------------------------------*\
| =========                 |                                                 |
| \\      /  F ield         | OpenFOAM: The Open Source CFD Toolbox           |
|  \\    /   O peration     | Version:  v1906                                 |
|   \\  /    A nd           | Web:      www.OpenFOAM.com                      |
|    \\/     M anipulation  |                                                 |
\*---------------------------------------------------------------------------*/
FoamFile
{
    version     2.0;
    format      ascii;
    class       volScalarField;
    location    "2000";
    object      T;
}
// * * * * * * * * * * * * * * * * * * * * * * * * * * * * * * * * * * * * * //

dimensions      [0 0 0 1 0 0 0];


internalField   nonuniform List<scalar> 
2000
(
300
300.002
300.006
300.014
300.025
300.04
300.063
300.099
300.159
300.268
300.47
300.831
301.455
302.642
305.824
306.622
304.605
304.537
304.554
304.617
304.704
304.824
304.975
305.159
305.376
305.572
305.91
306.09
309.269
306.716
302.554
302.656
302.579
302.553
302.497
302.452
302.398
302.348
302.297
302.248
302.202
302.159
302.119
302.084
302.053
302.026
302.005
301.988
301.977
301.971
300
300.003
300.009
300.018
300.031
300.049
300.074
300.112
300.173
300.274
300.444
300.725
301.179
301.958
303.762
306.448
304.666
304.516
304.505
304.545
304.63
304.762
304.942
305.173
305.454
305.767
306.117
306.443
309.689
306.883
302.735
302.719
302.683
302.645
302.592
302.537
302.476
302.415
302.354
302.296
302.241
302.191
302.144
302.103
302.067
302.036
302.01
301.991
301.978
301.971
300.001
300.004
300.011
300.021
300.035
300.054
300.08
300.12
300.179
300.273
300.42
300.648
300.996
301.55
302.719
306.138
304.707
304.496
304.459
304.482
304.562
304.698
304.897
305.163
305.498
305.894
306.344
306.879
310.209
306.951
303.034
302.834
302.779
302.729
302.669
302.603
302.534
302.464
302.396
302.33
302.269
302.212
302.161
302.115
302.075
302.041
302.013
301.992
301.977
301.97
300.001
300.005
300.012
300.023
300.037
300.057
300.084
300.123
300.18
300.266
300.394
300.583
300.86
301.282
302.205
305.89
304.705
304.468
304.405
304.412
304.482
304.62
304.832
305.128
305.515
305.998
306.577
307.348
310.616
307.009
303.281
302.968
302.879
302.813
302.742
302.667
302.588
302.509
302.432
302.36
302.292
302.23
302.174
302.124
302.081
302.044
302.014
301.991
301.975
301.967
300.001
300.006
300.013
300.024
300.039
300.059
300.086
300.124
300.178
300.256
300.368
300.528
300.754
301.097
301.906
305.705
304.676
304.425
304.336
304.328
304.386
304.52
304.74
305.061
305.5
306.073
306.797
307.791
310.996
307.092
303.52
303.117
302.989
302.904
302.82
302.732
302.642
302.553
302.467
302.387
302.312
302.245
302.184
302.131
302.084
302.045
302.013
301.989
301.972
301.964
300.002
300.006
300.014
300.025
300.04
300.06
300.087
300.123
300.174
300.245
300.344
300.48
300.67
300.963
301.705
305.56
304.628
304.366
304.254
304.227
304.271
304.396
304.618
304.958
305.44
306.1
306.981
308.213
311.434
307.166
303.759
303.278
303.112
303.003
302.902
302.799
302.697
302.596
302.501
302.412
302.331
302.258
302.193
302.135
302.086
302.045
302.011
301.985
301.968
301.959
300.002
300.007
300.015
300.026
300.041
300.06
300.086
300.121
300.169
300.233
300.32
300.439
300.603
300.862
301.558
305.439
304.566
304.291
304.156
304.109
304.134
304.247
304.464
304.811
305.326
306.062
307.099
308.592
311.906
307.275
303.995
303.452
303.247
303.113
302.99
302.87
302.752
302.639
302.533
302.435
302.347
302.268
302.199
302.138
302.086
302.042
302.007
301.98
301.961
301.952
300.002
300.008
300.016
300.027
300.041
300.061
300.086
300.119
300.163
300.221
300.299
300.403
300.548
300.782
301.444
305.331
304.492
304.201
304.042
303.972
303.977
304.073
304.277
304.621
305.15
305.94
307.115
308.906
312.459
307.383
304.23
303.639
303.397
303.232
303.085
302.943
302.807
302.679
302.562
302.455
302.36
302.276
302.202
302.138
302.083
302.037
302
301.972
301.953
301.943
300.002
300.008
300.017
300.027
300.042
300.06
300.084
300.115
300.156
300.209
300.279
300.372
300.502
300.718
301.353
305.233
304.408
304.096
303.913
303.816
303.8
303.875
304.061
304.388
304.91
305.722
306.997
309.088
313.082
307.571
304.478
303.842
303.561
303.362
303.184
303.017
302.86
302.717
302.587
302.472
302.37
302.28
302.202
302.135
302.078
302.03
301.992
301.963
301.943
301.933
300.002
300.009
300.017
300.028
300.042
300.06
300.082
300.112
300.149
300.198
300.261
300.345
300.463
300.665
301.276
305.136
304.314
303.978
303.767
303.643
303.605
303.658
303.82
304.12
304.613
305.405
306.717
309.067
313.788
307.744
304.745
304.068
303.742
303.5
303.285
303.088
302.91
302.749
302.608
302.483
302.374
302.28
302.198
302.129
302.07
302.021
301.981
301.951
301.931
301.921
300.003
300.009
300.017
300.028
300.042
300.059
300.08
300.108
300.143
300.187
300.245
300.321
300.429
300.618
301.21
305.052
304.211
303.843
303.602
303.453
303.394
303.425
303.561
303.825
304.27
305.001
306.262
308.736
314.474
308.075
305.055
304.324
303.941
303.644
303.384
303.154
302.951
302.774
302.621
302.488
302.373
302.275
302.191
302.119
302.058
302.008
301.968
301.937
301.917
301.906
300.003
300.009
300.018
300.028
300.041
300.058
300.078
300.104
300.136
300.177
300.23
300.299
300.398
300.577
301.151
304.949
304.095
303.687
303.415
303.245
303.168
303.181
303.291
303.516
303.899
304.531
305.644
307.974
314.336
308.331
305.408
304.619
304.155
303.786
303.473
303.207
302.98
302.788
302.624
302.485
302.366
302.264
302.178
302.105
302.043
301.992
301.952
301.921
301.9
301.889
300.003
300.01
300.018
300.028
300.041
300.057
300.076
300.1
300.13
300.168
300.216
300.279
300.37
300.537
301.094
304.888
303.96
303.499
303.2
303.017
302.931
302.931
303.017
303.204
303.52
304.033
304.918
306.772
312.296
308.913
305.884
304.962
304.369
303.909
303.539
303.238
302.991
302.787
302.616
302.472
302.351
302.247
302.16
302.086
302.024
301.973
301.933
301.902
301.881
301.87
300.003
300.01
300.018
300.028
300.04
300.055
300.074
300.097
300.124
300.159
300.203
300.26
300.344
300.499
301.037
304.74
303.777
303.261
302.948
302.767
302.682
302.678
302.747
302.899
303.151
303.545
304.185
305.422
309.016
309.327
306.512
305.319
304.539
303.98
303.562
303.237
302.978
302.768
302.594
302.449
302.326
302.223
302.136
302.063
302.001
301.951
301.91
301.88
301.859
301.848
300.003
300.01
300.018
300.028
300.039
300.054
300.072
300.093
300.119
300.151
300.191
300.243
300.318
300.459
300.979
304.779
303.488
302.939
302.651
302.495
302.426
302.425
302.484
302.609
302.807
303.098
303.532
304.276
306.447
310.621
307.185
305.509
304.567
303.956
303.521
303.193
302.935
302.727
302.555
302.413
302.293
302.192
302.106
302.034
301.974
301.925
301.885
301.855
301.834
301.824
300.003
300.01
300.018
300.027
300.039
300.053
300.069
300.089
300.114
300.143
300.18
300.227
300.294
300.415
300.895
303.96
302.891
302.502
302.307
302.206
302.167
302.177
302.234
302.338
302.494
302.708
302.992
303.392
304.375
309.511
306.645
305.177
304.344
303.797
303.402
303.099
302.858
302.662
302.499
302.364
302.249
302.152
302.07
302.001
301.943
301.895
301.857
301.827
301.807
301.797
300.003
300.01
300.017
300.027
300.038
300.051
300.067
300.086
300.109
300.136
300.17
300.213
300.272
300.366
300.585
301.813
302.012
301.992
301.944
301.915
301.913
301.939
301.998
302.089
302.215
302.376
302.571
302.806
303.204
304.953
304.819
304.351
303.896
303.517
303.209
302.957
302.749
302.574
302.427
302.302
302.195
302.105
302.027
301.962
301.907
301.861
301.825
301.797
301.778
301.768
300.003
300.009
300.017
300.026
300.037
300.05
300.065
300.083
300.104
300.13
300.162
300.201
300.254
300.334
300.499
301.073
301.4
301.545
301.605
301.639
301.673
301.717
301.78
301.863
301.969
302.095
302.241
302.408
302.672
303.419
303.647
303.584
303.395
303.178
302.969
302.779
302.612
302.465
302.338
302.227
302.132
302.049
301.978
301.918
301.866
301.824
301.79
301.763
301.745
301.736
300.003
300.009
300.017
300.026
300.036
300.048
300.063
300.08
300.1
300.124
300.154
300.191
300.239
300.312
300.446
300.761
301.032
301.211
301.321
301.395
301.455
301.514
301.581
301.66
301.752
301.857
301.973
302.107
302.301
302.685
302.916
302.98
302.937
302.834
302.709
302.58
302.455
302.34
302.235
302.142
302.059
301.986
301.923
301.868
301.822
301.783
301.751
301.727
301.71
301.702
300.003
300.009
300.016
300.025
300.035
300.047
300.061
300.077
300.096
300.119
300.147
300.181
300.227
300.292
300.402
300.601
300.806
300.973
301.096
301.188
301.264
301.333
301.403
301.478
301.561
301.652
301.75
301.862
302.011
302.241
302.426
302.525
302.546
302.516
302.453
302.374
302.289
302.204
302.123
302.048
301.979
301.917
301.862
301.814
301.773
301.739
301.71
301.688
301.673
301.665
300.003
300.009
300.016
300.024
300.034
300.045
300.059
300.074
300.093
300.114
300.141
300.173
300.215
300.274
300.364
300.504
300.66
300.803
300.921
301.018
301.099
301.173
301.244
301.317
301.393
301.474
301.56
301.656
301.774
301.931
302.075
302.174
302.224
302.233
302.213
302.172
302.12
302.063
302.004
301.947
301.892
301.842
301.797
301.756
301.721
301.691
301.666
301.647
301.633
301.626
300.003
300.009
300.015
300.023
300.033
300.044
300.057
300.072
300.089
300.11
300.135
300.165
300.204
300.257
300.332
300.438
300.559
300.679
300.786
300.879
300.961
301.034
301.105
301.175
301.246
301.319
301.396
301.479
301.577
301.693
301.807
301.898
301.958
301.988
301.993
301.981
301.955
301.921
301.882
301.841
301.801
301.763
301.727
301.694
301.665
301.64
301.619
301.603
301.591
301.585
300.003
300.008
300.015
300.023
300.032
300.042
300.055
300.069
300.086
300.106
300.129
300.158
300.194
300.241
300.305
300.389
300.486
300.585
300.68
300.766
300.844
300.915
300.983
301.049
301.116
301.183
301.252
301.326
301.408
301.501
301.594
301.674
301.736
301.776
301.798
301.803
301.797
301.781
301.76
301.734
301.707
301.68
301.653
301.629
301.606
301.586
301.57
301.556
301.547
301.542
300.002
300.008
300.014
300.022
300.031
300.041
300.053
300.066
300.083
300.101
300.124
300.151
300.184
300.227
300.281
300.35
300.429
300.513
300.595
300.673
300.745
300.813
300.877
300.94
301.001
301.063
301.126
301.192
301.264
301.34
301.418
301.489
301.548
301.593
301.623
301.641
301.648
301.647
301.639
301.627
301.612
301.595
301.578
301.561
301.545
301.53
301.518
301.508
301.501
301.497
300.002
300.008
300.014
300.021
300.029
300.039
300.051
300.064
300.079
300.097
300.119
300.144
300.175
300.213
300.261
300.318
300.385
300.456
300.527
300.596
300.663
300.725
300.785
300.844
300.901
300.958
301.016
301.075
301.138
301.203
301.27
301.333
301.388
301.434
301.469
301.494
301.511
301.52
301.523
301.521
301.516
301.509
301.5
301.491
301.481
301.472
301.464
301.458
301.453
301.451
300.002
300.007
300.013
300.02
300.028
300.038
300.049
300.062
300.076
300.094
300.114
300.137
300.166
300.2
300.242
300.292
300.348
300.409
300.471
300.533
300.592
300.65
300.706
300.76
300.812
300.865
300.918
300.972
301.027
301.085
301.143
301.199
301.25
301.294
301.331
301.361
301.384
301.4
301.411
301.418
301.422
301.423
301.422
301.419
301.416
301.412
301.409
301.406
301.404
301.403
300.002
300.007
300.013
300.019
300.027
300.036
300.047
300.059
300.073
300.09
300.109
300.131
300.157
300.189
300.226
300.269
300.317
300.37
300.424
300.479
300.532
300.585
300.636
300.686
300.734
300.783
300.831
300.88
300.93
300.981
301.032
301.082
301.129
301.172
301.209
301.241
301.267
301.289
301.306
301.319
301.33
301.337
301.343
301.347
301.349
301.351
301.352
301.353
301.353
301.354
300.002
300.006
300.012
300.018
300.026
300.035
300.045
300.057
300.071
300.086
300.104
300.125
300.149
300.178
300.211
300.249
300.291
300.337
300.384
300.433
300.481
300.528
300.575
300.621
300.665
300.71
300.754
300.798
300.843
300.889
300.935
300.98
301.023
301.064
301.1
301.133
301.161
301.186
301.207
301.225
301.24
301.254
301.265
301.274
301.282
301.288
301.294
301.298
301.302
301.304
300.002
300.006
300.011
300.017
300.025
300.033
300.043
300.055
300.068
300.083
300.1
300.119
300.141
300.167
300.197
300.231
300.268
300.308
300.35
300.393
300.436
300.479
300.521
300.563
300.604
300.645
300.685
300.726
300.767
300.808
300.849
300.89
300.93
300.967
301.002
301.035
301.064
301.09
301.114
301.135
301.155
301.172
301.188
301.202
301.214
301.225
301.235
301.243
301.249
301.253
300.002
300.006
300.011
300.017
300.024
300.032
300.042
300.053
300.065
300.079
300.095
300.113
300.134
300.158
300.185
300.215
300.248
300.283
300.32
300.359
300.397
300.436
300.474
300.512
300.55
300.587
300.624
300.661
300.698
300.735
300.773
300.81
300.846
300.881
300.915
300.946
300.975
301.002
301.027
301.051
301.073
301.093
301.113
301.13
301.147
301.162
301.175
301.187
301.196
301.201
300.001
300.005
300.01
300.016
300.023
300.031
300.04
300.05
300.062
300.076
300.091
300.108
300.127
300.149
300.173
300.2
300.229
300.261
300.294
300.328
300.363
300.398
300.433
300.467
300.501
300.535
300.569
300.603
300.637
300.671
300.705
300.738
300.772
300.804
300.836
300.866
300.894
300.921
300.947
300.971
300.995
301.018
301.039
301.06
301.08
301.099
301.115
301.13
301.142
301.149
300.001
300.005
300.009
300.015
300.021
300.029
300.038
300.048
300.059
300.072
300.086
300.102
300.12
300.14
300.162
300.186
300.213
300.241
300.271
300.301
300.332
300.364
300.395
300.427
300.458
300.489
300.52
300.55
300.581
300.612
300.643
300.674
300.705
300.735
300.764
300.793
300.82
300.847
300.872
300.897
300.921
300.945
300.969
300.992
301.014
301.035
301.055
301.073
301.088
301.097
300.001
300.004
300.009
300.014
300.02
300.028
300.036
300.046
300.057
300.069
300.082
300.097
300.114
300.132
300.152
300.174
300.198
300.223
300.25
300.277
300.305
300.333
300.362
300.39
300.419
300.447
300.475
300.503
300.532
300.56
300.588
300.616
300.645
300.672
300.7
300.727
300.753
300.778
300.803
300.828
300.852
300.877
300.901
300.925
300.949
300.973
300.995
301.016
301.033
301.045
300.001
300.004
300.008
300.013
300.019
300.026
300.035
300.044
300.054
300.065
300.078
300.092
300.107
300.124
300.142
300.162
300.184
300.207
300.23
300.255
300.28
300.306
300.332
300.358
300.383
300.409
300.435
300.461
300.486
300.512
300.538
300.564
300.59
300.616
300.641
300.666
300.691
300.716
300.74
300.764
300.788
300.812
300.836
300.861
300.886
300.911
300.935
300.958
300.979
300.993
300.001
300.003
300.007
300.012
300.018
300.025
300.033
300.042
300.051
300.062
300.074
300.087
300.101
300.117
300.133
300.152
300.171
300.191
300.213
300.235
300.258
300.281
300.304
300.328
300.351
300.375
300.398
300.422
300.445
300.469
300.493
300.516
300.54
300.564
300.588
300.611
300.635
300.658
300.681
300.704
300.727
300.75
300.774
300.799
300.825
300.85
300.876
300.901
300.924
300.941
300.001
300.003
300.007
300.011
300.017
300.024
300.031
300.039
300.048
300.059
300.07
300.082
300.095
300.109
300.125
300.141
300.159
300.177
300.197
300.217
300.237
300.258
300.279
300.3
300.322
300.343
300.364
300.386
300.407
300.429
300.451
300.473
300.495
300.517
300.539
300.56
300.582
300.604
300.626
300.648
300.67
300.693
300.716
300.74
300.765
300.791
300.817
300.844
300.869
300.889
300
300.002
300.006
300.01
300.016
300.022
300.029
300.037
300.045
300.055
300.065
300.077
300.089
300.102
300.116
300.131
300.147
300.164
300.181
300.199
300.218
300.236
300.256
300.275
300.294
300.314
300.333
300.353
300.372
300.392
300.412
300.432
300.452
300.473
300.493
300.513
300.534
300.554
300.575
300.596
300.616
300.638
300.66
300.683
300.707
300.732
300.759
300.786
300.812
300.837
300
300.002
300.005
300.009
300.014
300.02
300.027
300.034
300.042
300.051
300.061
300.071
300.082
300.094
300.107
300.121
300.135
300.15
300.166
300.182
300.199
300.216
300.233
300.25
300.268
300.285
300.303
300.321
300.339
300.357
300.375
300.394
300.412
300.431
300.449
300.468
300.487
300.507
300.526
300.545
300.565
300.585
300.606
300.627
300.65
300.674
300.699
300.727
300.753
300.783
300
300.002
300.004
300.008
300.013
300.018
300.024
300.031
300.039
300.047
300.056
300.065
300.075
300.086
300.098
300.11
300.123
300.136
300.15
300.164
300.179
300.194
300.209
300.225
300.241
300.256
300.272
300.288
300.305
300.321
300.337
300.354
300.371
300.388
300.405
300.423
300.44
300.458
300.476
300.494
300.512
300.531
300.55
300.57
300.59
300.613
300.635
300.663
300.686
300.724
300
300.001
300.003
300.006
300.01
300.015
300.02
300.027
300.033
300.041
300.048
300.057
300.066
300.075
300.085
300.095
300.106
300.118
300.13
300.142
300.154
300.167
300.18
300.194
300.207
300.221
300.235
300.249
300.264
300.278
300.293
300.308
300.323
300.338
300.354
300.37
300.385
300.402
300.417
300.435
300.45
300.469
300.483
300.504
300.518
300.543
300.555
300.588
300.595
300.642
)
;

boundaryField
{
    floor
    {
        type            zeroGradient;
    }
    ceiling
    {
        type            zeroGradient;
    }
    inlet
    {
        type            fixedValue;
        value           uniform 300;
    }
    outlet
    {
        type            inletOutlet;
        inletValue      uniform 300;
        value           nonuniform List<scalar> 
40
(
301.97
301.97
301.969
301.967
301.963
301.958
301.951
301.943
301.932
301.92
301.905
301.888
301.869
301.847
301.823
301.796
301.767
301.735
301.701
301.664
301.625
301.584
301.541
301.497
301.45
301.402
301.353
301.303
301.253
301.201
301.149
301.097
301.045
300.993
300.941
300.889
300.837
300.783
300.724
300.642
)
;
    }
    fixedWalls
    {
        type            empty;
    }
    baffleFacesThermoBaffle1D_master
    {
        type            compressible::thermalBaffle1D<hConstSolidThermoPhysics>;
        refValue        nonuniform List<scalar> 
16
(
323.88
319.323
316.835
315.173
314.082
313.313
312.731
312.262
311.871
311.535
311.241
310.962
310.711
310.422
310.161
309.16
)
;
        refGradient     uniform 0;
        valueFraction   nonuniform List<scalar> 
16
(
0.987125
0.987125
0.986523
0.985162
0.984131
0.983304
0.982603
0.981988
0.981442
0.980953
0.980513
0.980095
0.979716
0.979287
0.97886
0.972522
)
;
        value           nonuniform List<scalar> 
16
(
323.657
319.157
316.691
315.035
313.949
313.184
312.604
312.137
311.748
311.413
311.12
310.843
310.592
310.304
310.044
309.02
)
;
        sampleMode      nearestPatchFace;
        sampleRegion    region0;
        samplePatch     baffleFacesThermoBaffle1D_slave;
        coupleGroup     baffleFacesThermoBaffle1D;
        thickness       uniform 0.005;
        qs              uniform 100;
        specie
        {
            molWeight       20;
        }
        equationOfState
        {
            rho             10;
        }
        thermodynamics
        {
            Cp              10;
            Hf              0;
        }
        transport
        {
            kappa           1;
        }
        qrPrevious      uniform 0;
        qr              none;
        qrRelaxation    1;
    }
    baffleFacesThermoBaffle1D_slave
    {
        type            compressible::thermalBaffle1D<hConstSolidThermoPhysics>;
        refValue        nonuniform List<scalar> 
16
(
323.907
319.407
316.941
315.285
314.199
313.434
312.854
312.387
311.998
311.663
311.37
311.093
310.842
310.554
310.294
309.27
)
;
        refGradient     uniform 0;
        valueFraction   nonuniform List<scalar> 
16
(
0.984622
0.978624
0.974967
0.972293
0.970126
0.968393
0.966952
0.965702
0.964589
0.96358
0.962642
0.961731
0.960809
0.959809
0.958656
0.957172
)
;
        value           nonuniform List<scalar> 
16
(
323.629
319.073
316.584
314.923
313.831
313.063
312.48
312.012
311.621
311.285
310.991
310.712
310.46
310.172
309.909
308.912
)
;
        sampleMode      nearestPatchFace;
        sampleRegion    region0;
        samplePatch     baffleFacesThermoBaffle1D_master;
        coupleGroup     baffleFacesThermoBaffle1D;
        qrPrevious      uniform 0;
        qr              none;
        qrRelaxation    1;
    }
    baffleFacesThermoBaffle3D_master
    {
        type            compressible::thermalBaffle;
        refValue        nonuniform List<scalar> 
16
(
375.475
375.489
375.094
371.694
368.399
366.058
364.457
363.385
362.778
362.559
362.629
362.807
362.982
363.943
363.112
350.966
)
;
        refGradient     uniform 0;
        valueFraction   nonuniform List<scalar> 
16
(
0.950415
0.950415
0.950415
0.947254
0.943999
0.94154
0.939688
0.938343
0.937457
0.937143
0.937195
0.937757
0.938214
0.940543
0.940144
0.918752
)
;
        value           nonuniform List<scalar> 
16
(
372.054
372.078
371.711
368.281
364.965
362.615
361.008
359.932
359.325
359.113
359.203
359.416
359.641
360.696
359.97
347.597
)
;
        Tnbr            T;
        qrNbr           none;
        qr              none;
        thermalInertia  false;
        thicknessLayers 0();
        kappaLayers     0();
        kappaMethod     fluidThermo;
        kappa           none;
        alphaAni        none;
        extrudeModel    linearNormal;
        nLayers         50;
        expansionRatio  1;
        columnCells     false;
        linearNormalCoeffs 
        {
            thickness       0.02;
        }

        region          baffle3DRegion;
        active          yes;
        thermoType      
        {
            type            heSolidThermo;
            mixture         pureMixture;
            transport       constIso;
            thermo          hConst;
            equationOfState rhoConst;
            specie          specie;
            energy          sensibleEnthalpy;
        }

        mixture         
        {
            specie
            {
                molWeight       20;
            }
            transport
            {
                kappa           0.01;
            }
            thermodynamics
            {
                Hf              0;
                Cp              15;
            }
            equationOfState
            {
                rho             80;
            }
        }

        radiation       
        {
            radiationModel  opaqueSolid;
            absorptionEmissionModel none;
            scatterModel    none;
            transmissivityModel none;
        }

    }
    baffleFacesThermoBaffle3D_slave
    {
        type            compressible::thermalBaffle;
        refValue        nonuniform List<scalar> 
16
(
377.656
377.649
375.846
372.893
370.672
369.468
368.672
368.155
367.74
367.107
365.762
362.664
357.304
350.762
344.455
337.378
)
;
        refGradient     uniform 0;
        valueFraction   nonuniform List<scalar> 
16
(
0.950415
0.950415
0.948557
0.945533
0.943236
0.941897
0.94078
0.939781
0.93873
0.937204
0.934601
0.92998
0.923385
0.915548
0.906186
0.890153
)
;
        value           nonuniform List<scalar> 
16
(
374.28
374.287
372.471
369.501
367.285
366.096
365.31
364.801
364.391
363.759
362.408
359.28
353.856
347.237
340.889
333.752
)
;
        Tnbr            T;
        qrNbr           none;
        qr              none;
        thermalInertia  false;
        thicknessLayers 0();
        kappaLayers     0();
        kappaMethod     fluidThermo;
        kappa           none;
        alphaAni        none;
    }
}


// ************************************************************************* //
