/*--------------------------------*- C++ -*----------------------------------*\
| =========                 |                                                 |
| \\      /  F ield         | OpenFOAM: The Open Source CFD Toolbox           |
|  \\    /   O peration     | Version:  v1906                                 |
|   \\  /    A nd           | Web:      www.OpenFOAM.com                      |
|    \\/     M anipulation  |                                                 |
\*---------------------------------------------------------------------------*/
FoamFile
{
    version     2.0;
    format      ascii;
    class       volVectorField;
    location    "2000";
    object      U;
}
// * * * * * * * * * * * * * * * * * * * * * * * * * * * * * * * * * * * * * //

dimensions      [0 1 -1 0 0 0 0];


internalField   nonuniform List<vector> 
2000
(
(0.0918138 -0.053708 0)
(0.152799 0.00315707 0)
(0.118992 0.00939689 0)
(0.097722 0.00830836 0)
(0.0875911 0.00656716 0)
(0.0741584 0.00623842 0)
(0.0609299 0.00675579 0)
(0.0459683 0.00752541 0)
(0.0296748 0.00822125 0)
(0.0124042 0.00839007 0)
(-0.00445195 0.00755624 0)
(-0.0188226 0.00497878 0)
(-0.026166 0.000677692 0)
(-0.0234366 -0.00627985 0)
(-0.00845748 -0.00652249 0)
(-0.0116097 0.0065426 0)
(-0.0244251 0.00449289 0)
(-0.0359924 0.00452386 0)
(-0.0440556 0.00137361 0)
(-0.0451216 -0.000693909 0)
(-0.0407559 -0.00426632 0)
(-0.0292253 -0.00666724 0)
(-0.0138243 -0.00895902 0)
(0.0062467 -0.00977143 0)
(0.0240096 -0.00995568 0)
(0.0455739 -0.00899287 0)
(0.0582378 -0.00224188 0)
(0.0569803 0.00298512 0)
(0.0400342 0.0152062 0)
(-0.0283107 0.0127874 0)
(-0.0502159 0.00816922 0)
(-0.0717199 0.0075444 0)
(-0.0861207 0.0042134 0)
(-0.0943766 0.00170107 0)
(-0.0967173 0.000154682 0)
(-0.0967985 -0.00112581 0)
(-0.091997 -0.00231942 0)
(-0.086849 -0.00268306 0)
(-0.0799072 -0.00303487 0)
(-0.0729275 -0.00314987 0)
(-0.0655326 -0.0031931 0)
(-0.0583462 -0.00315546 0)
(-0.0512834 -0.00309805 0)
(-0.0444693 -0.00305364 0)
(-0.0378471 -0.00306727 0)
(-0.0311042 -0.00322778 0)
(-0.0245006 -0.00362315 0)
(-0.0154973 -0.00439771 0)
(-0.00853084 -0.00586963 0)
(0.0115382 -0.00879557 0)
(0.101147 -0.000126374 0)
(0.0661421 0.00210519 0)
(0.0912095 0.00944126 0)
(0.0909831 0.0100734 0)
(0.0876388 0.0104635 0)
(0.079336 0.0115805 0)
(0.0693266 0.0129966 0)
(0.0573521 0.014465 0)
(0.0439674 0.0156226 0)
(0.0295922 0.0159428 0)
(0.0150983 0.0146865 0)
(0.0015688 0.0109869 0)
(-0.00876147 0.00393693 0)
(-0.0147697 -0.00651733 0)
(-0.0121871 -0.01527 0)
(-0.010401 0.0157582 0)
(-0.0242111 0.0120195 0)
(-0.0346529 0.00933578 0)
(-0.0410671 0.00395017 0)
(-0.0420726 -0.00111387 0)
(-0.0385647 -0.00738217 0)
(-0.0303545 -0.0121883 0)
(-0.0183219 -0.0161293 0)
(-0.00355841 -0.0180401 0)
(0.0128539 -0.0180012 0)
(0.027366 -0.0154446 0)
(0.0385263 -0.00546863 0)
(0.0413883 0.0101958 0)
(0.0310748 0.040207 0)
(-0.0224707 0.0337693 0)
(-0.0457206 0.021904 0)
(-0.0652044 0.0165985 0)
(-0.0760164 0.010229 0)
(-0.0820799 0.00472394 0)
(-0.0835154 0.00118104 0)
(-0.0823158 -0.00238839 0)
(-0.0783149 -0.00454336 0)
(-0.073192 -0.00575151 0)
(-0.0669053 -0.00650165 0)
(-0.0602725 -0.0068155 0)
(-0.0533996 -0.00688403 0)
(-0.0466049 -0.00677423 0)
(-0.0399591 -0.00659033 0)
(-0.033528 -0.00640845 0)
(-0.0273223 -0.00631806 0)
(-0.021165 -0.00643463 0)
(-0.015171 -0.0069417 0)
(-0.00858051 -0.00783401 0)
(-0.00295886 -0.00983495 0)
(0.00594775 -0.0121506 0)
(0.0987835 -0.00546744 0)
(0.0886167 0.00110133 0)
(0.0929852 0.00537703 0)
(0.091643 0.0102201 0)
(0.0885917 0.0133927 0)
(0.0822002 0.0161959 0)
(0.0740362 0.0188246 0)
(0.0640724 0.0212384 0)
(0.0527816 0.0230914 0)
(0.0405054 0.0237995 0)
(0.0278392 0.0224999 0)
(0.0152732 0.0180865 0)
(0.0043208 0.00966092 0)
(-0.00474947 -0.00365751 0)
(-0.00562557 -0.0213716 0)
(-0.0104205 0.026397 0)
(-0.0235945 0.0197356 0)
(-0.0327618 0.0142151 0)
(-0.0384822 0.00606164 0)
(-0.0398112 -0.00164783 0)
(-0.0372993 -0.0102756 0)
(-0.0313638 -0.0173092 0)
(-0.0223041 -0.0229124 0)
(-0.0107894 -0.0261613 0)
(0.00213792 -0.026626 0)
(0.0148329 -0.0221903 0)
(0.0241632 -0.00963218 0)
(0.0281725 0.0120875 0)
(0.0234463 0.0598348 0)
(-0.0221962 0.0538328 0)
(-0.0407966 0.0350231 0)
(-0.0569292 0.0253098 0)
(-0.0657494 0.0148363 0)
(-0.0703728 0.00653211 0)
(-0.0712988 0.000893706 0)
(-0.0694996 -0.00398633 0)
(-0.0659271 -0.0072172 0)
(-0.0610904 -0.00912678 0)
(-0.0553632 -0.0102537 0)
(-0.0492478 -0.0107471 0)
(-0.0429476 -0.0108391 0)
(-0.0366856 -0.0106624 0)
(-0.0305721 -0.0103553 0)
(-0.024655 -0.010028 0)
(-0.018998 -0.00981538 0)
(-0.0134852 -0.00983392 0)
(-0.00840054 -0.0101745 0)
(-0.00316843 -0.0110417 0)
(0.0011105 -0.012726 0)
(0.00603963 -0.0143739 0)
(0.0995266 -0.00133881 0)
(0.0952687 0.00260404 0)
(0.0951117 0.00678365 0)
(0.0927724 0.0118937 0)
(0.0897773 0.0162722 0)
(0.0845163 0.0203138 0)
(0.07767 0.0240346 0)
(0.0692253 0.0273725 0)
(0.0595319 0.0299465 0)
(0.0488482 0.0311264 0)
(0.0375687 0.0300053 0)
(0.0259995 0.0253892 0)
(0.0148185 0.0161533 0)
(0.0044522 0.000906981 0)
(-0.000198514 -0.022565 0)
(-0.0115774 0.0360025 0)
(-0.0228018 0.0270612 0)
(-0.0315134 0.0185263 0)
(-0.0366263 0.00835489 0)
(-0.0384395 -0.00192506 0)
(-0.0369344 -0.0125925 0)
(-0.0329256 -0.021265 0)
(-0.0261112 -0.0285928 0)
(-0.0174703 -0.032996 0)
(-0.00734743 -0.0339011 0)
(0.00293543 -0.0290155 0)
(0.0125951 -0.0141676 0)
(0.0173949 0.0133623 0)
(0.0161122 0.0719601 0)
(-0.0212734 0.072088 0)
(-0.0377511 0.0457746 0)
(-0.0492452 0.0323343 0)
(-0.056681 0.018321 0)
(-0.0597318 0.00839389 0)
(-0.0600329 0.00034316 0)
(-0.0579015 -0.00565744 0)
(-0.0544658 -0.00975773 0)
(-0.0499042 -0.0123059 0)
(-0.0446363 -0.0137905 0)
(-0.0390173 -0.0144617 0)
(-0.0332627 -0.0145914 0)
(-0.0275343 -0.014359 0)
(-0.021966 -0.0139537 0)
(-0.0165821 -0.0135019 0)
(-0.0115095 -0.0131081 0)
(-0.00674754 -0.0129154 0)
(-0.00228145 -0.0131349 0)
(0.00198189 -0.0137761 0)
(0.0052224 -0.0149685 0)
(0.0085391 -0.0159373 0)
(0.0996546 -0.000214169 0)
(0.0974612 0.00356724 0)
(0.09635 0.00793159 0)
(0.0939122 0.0134907 0)
(0.0910379 0.0187444 0)
(0.086551 0.0237788 0)
(0.0807237 0.0284506 0)
(0.0734967 0.0326281 0)
(0.0650942 0.0358977 0)
(0.05568 0.0376081 0)
(0.0454787 0.0368383 0)
(0.0346393 0.0323818 0)
(0.0234276 0.0230457 0)
(0.0120764 0.00681321 0)
(0.00515792 -0.0194372 0)
(-0.0111934 0.0465832 0)
(-0.0224009 0.033728 0)
(-0.0306654 0.0225897 0)
(-0.0352675 0.0106165 0)
(-0.0373628 -0.00157891 0)
(-0.0369823 -0.0137831 0)
(-0.0343126 -0.0241911 0)
(-0.0295464 -0.0326996 0)
(-0.0235106 -0.0380505 0)
(-0.0158248 -0.0396071 0)
(-0.00756805 -0.0347752 0)
(0.00136205 -0.0193307 0)
(0.00790896 0.012198 0)
(0.0115792 0.079538 0)
(-0.0187902 0.0898648 0)
(-0.0337459 0.0548241 0)
(-0.042828 0.0370861 0)
(-0.0479527 0.0213075 0)
(-0.0498295 0.00889877 0)
(-0.0491652 -0.00039381 0)
(-0.0468092 -0.00740234 0)
(-0.0433643 -0.0122154 0)
(-0.0390361 -0.0152772 0)
(-0.0341729 -0.0170515 0)
(-0.0290267 -0.0178583 0)
(-0.0238091 -0.0180225 0)
(-0.0186159 -0.0177465 0)
(-0.0136306 -0.0171924 0)
(-0.00894005 -0.0165465 0)
(-0.00441448 -0.0159915 0)
(-0.000151945 -0.0156439 0)
(0.00367494 -0.0156098 0)
(0.00715198 -0.0159099 0)
(0.00967581 -0.0165989 0)
(0.0121522 -0.017057 0)
(0.0997668 0.000518939 0)
(0.0983637 0.00440149 0)
(0.097056 0.00914796 0)
(0.0948265 0.0150402 0)
(0.0921706 0.0209388 0)
(0.0883094 0.0267499 0)
(0.0833242 0.0322276 0)
(0.0771134 0.0371656 0)
(0.0697856 0.0411161 0)
(0.0614098 0.043423 0)
(0.0520565 0.0431756 0)
(0.0417289 0.0391911 0)
(0.0303873 0.0302359 0)
(0.0182026 0.0140522 0)
(0.00865772 -0.0131773 0)
(-0.0107557 0.0562376 0)
(-0.0217441 0.0403151 0)
(-0.0297437 0.0266225 0)
(-0.034237 0.0124958 0)
(-0.036268 -0.000805028 0)
(-0.0366308 -0.0144339 0)
(-0.0351525 -0.025989 0)
(-0.0323113 -0.0354097 0)
(-0.0284106 -0.0416202 0)
(-0.0230709 -0.043949 0)
(-0.0167869 -0.0397122 0)
(-0.0087784 -0.0243399 0)
(-0.00134836 0.00865232 0)
(0.00515351 0.0835379 0)
(-0.0163278 0.104267 0)
(-0.0290411 0.0626486 0)
(-0.036201 0.0408898 0)
(-0.0393688 0.0229617 0)
(-0.0399303 0.00901109 0)
(-0.0384887 -0.00149305 0)
(-0.035837 -0.00926258 0)
(-0.0323478 -0.0146142 0)
(-0.0282327 -0.0180521 0)
(-0.0237588 -0.020053 0)
(-0.0190773 -0.0209632 0)
(-0.0144286 -0.0210837 0)
(-0.00996027 -0.0206917 0)
(-0.00551363 -0.020037 0)
(-0.00123614 -0.0192939 0)
(0.00275013 -0.0185748 0)
(0.00642098 -0.0179912 0)
(0.00965686 -0.0176732 0)
(0.0124885 -0.017621 0)
(0.0144828 -0.0178634 0)
(0.0164132 -0.0179301 0)
(0.0998391 0.00102124 0)
(0.0987891 0.00514327 0)
(0.0974898 0.0102636 0)
(0.0955155 0.0164579 0)
(0.0931297 0.0228627 0)
(0.0898143 0.029302 0)
(0.0855499 0.0354698 0)
(0.0802056 0.0411045 0)
(0.0737921 0.0457324 0)
(0.0662833 0.048708 0)
(0.0576088 0.0491494 0)
(0.0476349 0.0459171 0)
(0.0360672 0.0377656 0)
(0.0230763 0.0223231 0)
(0.0113178 -0.00467352 0)
(-0.0103477 0.0657987 0)
(-0.0210345 0.0466458 0)
(-0.0285158 0.0305502 0)
(-0.0328773 0.0144742 0)
(-0.0347769 2.84199e-06 0)
(-0.0354756 -0.0145376 0)
(-0.0349688 -0.0268877 0)
(-0.0336901 -0.0368801 0)
(-0.0317017 -0.0439053 0)
(-0.028714 -0.046909 0)
(-0.0245048 -0.0437225 0)
(-0.0175991 -0.0293483 0)
(-0.0097612 0.00369674 0)
(0.00245477 0.0828309 0)
(-0.013751 0.116857 0)
(-0.0240306 0.069048 0)
(-0.0292421 0.0434593 0)
(-0.0305703 0.0236675 0)
(-0.0298451 0.00842401 0)
(-0.0276985 -0.00297203 0)
(-0.0247881 -0.011206 0)
(-0.0212294 -0.0169822 0)
(-0.0173564 -0.0206576 0)
(-0.0133138 -0.0227459 0)
(-0.00933416 -0.0236489 0)
(-0.00520878 -0.0237599 0)
(-0.0011167 -0.0233527 0)
(0.00279381 -0.0226138 0)
(0.00650812 -0.0217047 0)
(0.00992634 -0.0207878 0)
(0.0130447 -0.019977 0)
(0.0157349 -0.01938 0)
(0.0180225 -0.0189953 0)
(0.0195986 -0.0188618 0)
(0.0211087 -0.0186241 0)
(0.0998848 0.00140554 0)
(0.0990193 0.00581638 0)
(0.0977903 0.0112648 0)
(0.0960526 0.0177217 0)
(0.0939465 0.0245322 0)
(0.0911127 0.0314869 0)
(0.0874763 0.0382507 0)
(0.0828815 0.0445289 0)
(0.0772621 0.0498347 0)
(0.0704988 0.0535516 0)
(0.0623912 0.0548422 0)
(0.0526749 0.0526251 0)
(0.0408338 0.0456621 0)
(0.0270329 0.0316008 0)
(0.0135981 0.00621096 0)
(-0.0100491 0.0749041 0)
(-0.0201851 0.0525954 0)
(-0.0268564 0.0341067 0)
(-0.0307246 0.0163333 0)
(-0.0323294 0.000825774 0)
(-0.0330712 -0.0143163 0)
(-0.033254 -0.0271123 0)
(-0.0332279 -0.0374005 0)
(-0.0329314 -0.0447895 0)
(-0.0321546 -0.0484681 0)
(-0.0303136 -0.0466167 0)
(-0.0252059 -0.0340629 0)
(-0.0175657 -0.00274341 0)
(-0.00290079 0.078243 0)
(-0.0116434 0.127131 0)
(-0.0185829 0.0738196 0)
(-0.0217923 0.0448227 0)
(-0.0212728 0.0234101 0)
(-0.0193697 0.00718487 0)
(-0.0166522 -0.00463298 0)
(-0.0134436 -0.0133086 0)
(-0.0100369 -0.0192206 0)
(-0.00659471 -0.0229721 0)
(-0.00297635 -0.0251143 0)
(0.000712845 -0.0260744 0)
(0.00430979 -0.0261819 0)
(0.00781459 -0.0256829 0)
(0.0111513 -0.0248165 0)
(0.0142911 -0.0237607 0)
(0.0171692 -0.022659 0)
(0.0197487 -0.0216299 0)
(0.0219377 -0.0207693 0)
(0.023749 -0.0200869 0)
(0.0249741 -0.0196421 0)
(0.0261193 -0.0191644 0)
(0.0999141 0.00171905 0)
(0.0991655 0.00643072 0)
(0.09803 0.0121589 0)
(0.0965034 0.0188336 0)
(0.0946688 0.0259736 0)
(0.0922599 0.0333495 0)
(0.0891765 0.0406278 0)
(0.0852399 0.0474983 0)
(0.0803309 0.0534904 0)
(0.0742356 0.0580149 0)
(0.0666359 0.0603017 0)
(0.0571386 0.0593475 0)
(0.0450187 0.0539313 0)
(0.0303867 0.0417489 0)
(0.0153695 0.0184194 0)
(-0.00966154 0.0838957 0)
(-0.0189484 0.0580222 0)
(-0.0244331 0.0371492 0)
(-0.0274212 0.0178439 0)
(-0.0284379 0.00146484 0)
(-0.0289497 -0.0139453 0)
(-0.0295467 -0.0268045 0)
(-0.0304566 -0.0370656 0)
(-0.0317008 -0.0445658 0)
(-0.0328515 -0.0486271 0)
(-0.0332862 -0.0479449 0)
(-0.0309293 -0.0379485 0)
(-0.0241107 -0.00990945 0)
(-0.00828421 0.0697793 0)
(-0.00848899 0.134898 0)
(-0.0123501 0.0770069 0)
(-0.0135314 0.0449461 0)
(-0.0111947 0.0222305 0)
(-0.00831503 0.0055367 0)
(-0.00513469 -0.00661258 0)
(-0.00185634 -0.0153549 0)
(0.00137615 -0.0213054 0)
(0.00465763 -0.0251124 0)
(0.00781012 -0.0272733 0)
(0.0109155 -0.0281858 0)
(0.0139196 -0.0282186 0)
(0.016819 -0.0276386 0)
(0.0195688 -0.0266625 0)
(0.022139 -0.0254706 0)
(0.02448 -0.0241995 0)
(0.0265454 -0.0229668 0)
(0.0282679 -0.0218699 0)
(0.029649 -0.0209302 0)
(0.0305647 -0.0202302 0)
(0.0313695 -0.0195622 0)
(0.0999332 0.0019849 0)
(0.0992752 0.00698857 0)
(0.0982437 0.0129524 0)
(0.0969168 0.0198169 0)
(0.095344 0.0271924 0)
(0.0933034 0.0349264 0)
(0.0907145 0.0426501 0)
(0.0873707 0.050076 0)
(0.0831304 0.0567133 0)
(0.0776577 0.0621202 0)
(0.0705593 0.0655434 0)
(0.0613084 0.0660825 0)
(0.0489667 0.062566 0)
(0.0335291 0.0527462 0)
(0.0169639 0.0321341 0)
(-0.00929168 0.0919126 0)
(-0.0171323 0.0625643 0)
(-0.0208197 0.0394154 0)
(-0.0225377 0.0188174 0)
(-0.0226631 0.0017545 0)
(-0.0227246 -0.0135905 0)
(-0.0234943 -0.0261607 0)
(-0.0250961 -0.0360345 0)
(-0.0275535 -0.0432564 0)
(-0.0305479 -0.0474871 0)
(-0.0333307 -0.0477142 0)
(-0.0338412 -0.040253 0)
(-0.0292848 -0.016872 0)
(-0.0140888 0.0587066 0)
(-0.00664582 0.139712 0)
(-0.00448004 0.0780481 0)
(-0.00415408 0.0439491 0)
(2.1606e-05 0.0202172 0)
(0.00370587 0.00342779 0)
(0.00724788 -0.00871614 0)
(0.0105192 -0.0173847 0)
(0.0134608 -0.0232644 0)
(0.0162096 -0.0269784 0)
(0.0187777 -0.0290535 0)
(0.0212462 -0.0299072 0)
(0.0236161 -0.0298762 0)
(0.0258925 -0.0292198 0)
(0.0280457 -0.0281465 0)
(0.0300477 -0.026837 0)
(0.03186 -0.0254165 0)
(0.0334318 -0.0240052 0)
(0.0347165 -0.0227045 0)
(0.0356988 -0.0215461 0)
(0.0363313 -0.0206402 0)
(0.0368065 -0.0198217 0)
(0.0999465 0.00221406 0)
(0.0993689 0.00748876 0)
(0.0984558 0.0136523 0)
(0.0973292 0.0206352 0)
(0.0959851 0.0282468 0)
(0.0942925 0.0362466 0)
(0.0921562 0.0443447 0)
(0.0893834 0.0522499 0)
(0.0857334 0.0595869 0)
(0.0808973 0.0658622 0)
(0.0743697 0.0705319 0)
(0.0654566 0.0727827 0)
(0.053037 0.0715136 0)
(0.0368943 0.0645663 0)
(0.0186743 0.0469704 0)
(-0.0084725 0.0998267 0)
(-0.0143102 0.0660201 0)
(-0.015969 0.0404736 0)
(-0.0156162 0.0189259 0)
(-0.014609 0.00151948 0)
(-0.0140944 -0.0133921 0)
(-0.0148727 -0.0252958 0)
(-0.0169772 -0.0344802 0)
(-0.0203221 -0.0411141 0)
(-0.0247725 -0.0450478 0)
(-0.029689 -0.0457261 0)
(-0.0334217 -0.0406602 0)
(-0.0321115 -0.0228593 0)
(-0.0200175 0.0419457 0)
(-0.000481843 0.141144 0)
(0.00237818 0.0774533 0)
(0.00692607 0.0415305 0)
(0.0121378 0.0175389 0)
(0.016806 0.000911541 0)
(0.0204636 -0.0108648 0)
(0.0235111 -0.0192547 0)
(0.0259335 -0.024898 0)
(0.0280297 -0.0284569 0)
(0.0299127 -0.0304341 0)
(0.0316875 -0.0312199 0)
(0.0333845 -0.0311333 0)
(0.0350193 -0.0304173 0)
(0.0365703 -0.0292678 0)
(0.0380051 -0.0278617 0)
(0.0392997 -0.0263189 0)
(0.0403951 -0.0247592 0)
(0.0412704 -0.0232834 0)
(0.0418737 -0.0219547 0)
(0.0422387 -0.0208812 0)
(0.0423905 -0.0199449 0)
(0.0999566 0.00241014 0)
(0.0994569 0.00792605 0)
(0.098681 0.0142463 0)
(0.0977377 0.0213456 0)
(0.0966192 0.0291092 0)
(0.0952634 0.0373224 0)
(0.0935552 0.0457327 0)
(0.0913081 0.0540841 0)
(0.0882812 0.0620359 0)
(0.0840782 0.0692445 0)
(0.0782306 0.075188 0)
(0.0698493 0.0793571 0)
(0.0576075 0.0806948 0)
(0.0408989 0.0772817 0)
(0.0205949 0.0642024 0)
(-0.00795417 0.105372 0)
(-0.00964958 0.0676302 0)
(-0.0084184 0.0402032 0)
(-0.00600304 0.0180196 0)
(-0.00386253 0.000758658 0)
(-0.00306722 -0.0133393 0)
(-0.0039764 -0.0243873 0)
(-0.0061362 -0.0326207 0)
(-0.0100436 -0.0383031 0)
(-0.0154379 -0.0415847 0)
(-0.0219783 -0.0421605 0)
(-0.0282903 -0.0387485 0)
(-0.0317474 -0.0262984 0)
(-0.0250059 0.0272097 0)
(0.00149471 0.137223 0)
(0.0122505 0.0740183 0)
(0.019099 0.0375253 0)
(0.0264188 0.0139558 0)
(0.0312135 -0.00166803 0)
(0.0347296 -0.0129773 0)
(0.0371449 -0.0208084 0)
(0.0387932 -0.0261156 0)
(0.0400831 -0.0294832 0)
(0.0411789 -0.0313609 0)
(0.0422028 -0.0320925 0)
(0.0431944 -0.0319735 0)
(0.0441711 -0.0312234 0)
(0.0451258 -0.0300177 0)
(0.0459933 -0.0285553 0)
(0.0467812 -0.0269168 0)
(0.0474193 -0.0252413 0)
(0.0478977 -0.0236342 0)
(0.0481523 -0.0221532 0)
(0.0482591 -0.0209577 0)
(0.0480907 -0.0199325 0)
(0.0999655 0.00257867 0)
(0.0995503 0.00829653 0)
(0.098914 0.0147261 0)
(0.0981472 0.0219336 0)
(0.0972663 0.0297981 0)
(0.0962339 0.0381662 0)
(0.0949388 0.0468267 0)
(0.0932091 0.0555601 0)
(0.0908028 0.0640975 0)
(0.0873491 0.0721564 0)
(0.082255 0.0794471 0)
(0.0747826 0.0855632 0)
(0.0631486 0.0898718 0)
(0.0465115 0.0906089 0)
(0.0236485 0.0812236 0)
(-0.00492994 0.110515 0)
(-0.00371163 0.0669691 0)
(0.00243817 0.0379678 0)
(0.00699861 0.0160499 0)
(0.0099347 -0.000380134 0)
(0.0108219 -0.0132944 0)
(0.00970416 -0.0232921 0)
(0.00682506 -0.0305502 0)
(0.00246727 -0.0353192 0)
(-0.0029293 -0.0376125 0)
(-0.0100312 -0.0374657 0)
(-0.0180099 -0.0342711 0)
(-0.0252107 -0.025721 0)
(-0.0259907 0.00682787 0)
(0.00732516 0.134058 0)
(0.0254138 0.0691528 0)
(0.0344412 0.0324816 0)
(0.0428323 0.00981117 0)
(0.0471493 -0.00422247 0)
(0.049966 -0.0146642 0)
(0.0513196 -0.0218189 0)
(0.0519401 -0.0267772 0)
(0.0522797 -0.0299745 0)
(0.052503 -0.0317847 0)
(0.0527337 -0.0325003 0)
(0.0530032 -0.0323797 0)
(0.0533139 -0.0316391 0)
(0.0536645 -0.0304197 0)
(0.0539971 -0.028908 0)
(0.0542875 -0.0272181 0)
(0.0544877 -0.025461 0)
(0.0545865 -0.0237545 0)
(0.054504 -0.0221664 0)
(0.0543678 -0.0208748 0)
(0.0538816 -0.0197851 0)
(0.0999732 0.00270957 0)
(0.0996485 0.00859706 0)
(0.0991498 0.0151211 0)
(0.0985653 0.0223828 0)
(0.0979314 0.0303105 0)
(0.0972149 0.038783 0)
(0.0963254 0.0476317 0)
(0.0951128 0.0566764 0)
(0.0933582 0.0657143 0)
(0.0907159 0.074569 0)
(0.086661 0.0830736 0)
(0.080303 0.0912454 0)
(0.0700681 0.0987371 0)
(0.0540275 0.105166 0)
(0.0272129 0.107892 0)
(-0.00184238 0.110267 0)
(0.0076594 0.0628226 0)
(0.0180458 0.0334974 0)
(0.0237077 0.0133092 0)
(0.0268914 -0.00172425 0)
(0.0272957 -0.0131256 0)
(0.0256793 -0.0219005 0)
(0.0223935 -0.0281144 0)
(0.0176929 -0.0320499 0)
(0.0117975 -0.0336008 0)
(0.00473941 -0.0326667 0)
(-0.00299022 -0.0288822 0)
(-0.0110596 -0.0217799 0)
(-0.0162488 -0.00736999 0)
(0.0156792 0.111762 0)
(0.0425566 0.058541 0)
(0.054489 0.0254753 0)
(0.0611465 0.00647218 0)
(0.0645773 -0.00633966 0)
(0.0657894 -0.0155905 0)
(0.0657626 -0.0221027 0)
(0.0651656 -0.0267723 0)
(0.0644691 -0.0298687 0)
(0.063771 -0.031682 0)
(0.0632016 -0.0324255 0)
(0.0627441 -0.0323588 0)
(0.0624085 -0.0316529 0)
(0.0621675 -0.0304626 0)
(0.0619767 -0.0289507 0)
(0.0617966 -0.0272352 0)
(0.0615776 -0.0254306 0)
(0.0613156 -0.023659 0)
(0.0609094 -0.0219954 0)
(0.0605402 -0.0206364 0)
(0.0597407 -0.0195039 0)
(0.0999794 0.00281218 0)
(0.0997439 0.00881876 0)
(0.0993896 0.0154125 0)
(0.0989975 0.0226973 0)
(0.0986113 0.0306477 0)
(0.0982082 0.0391756 0)
(0.097721 0.0481481 0)
(0.0970297 0.0574218 0)
(0.0959577 0.0668515 0)
(0.0942207 0.076352 0)
(0.0914025 0.0859145 0)
(0.0867844 0.09582 0)
(0.0787859 0.106423 0)
(0.0663719 0.119266 0)
(0.0381976 0.124456 0)
(0.00664045 0.110101 0)
(0.0285858 0.0545766 0)
(0.0394344 0.0281066 0)
(0.045298 0.0102209 0)
(0.0469018 -0.00248389 0)
(0.0460502 -0.0125326 0)
(0.0433739 -0.0201808 0)
(0.0395196 -0.0254642 0)
(0.0346139 -0.02867 0)
(0.028976 -0.029551 0)
(0.0226398 -0.0280164 0)
(0.0154886 -0.0237397 0)
(0.00838218 -0.0161854 0)
(-0.000183791 -0.0128313 0)
(0.0230418 0.104531 0)
(0.0606295 0.0472821 0)
(0.0757483 0.0203454 0)
(0.0809718 0.00329597 0)
(0.0822626 -0.00727604 0)
(0.0814032 -0.0155669 0)
(0.0799459 -0.0214542 0)
(0.0781612 -0.0260377 0)
(0.0764381 -0.0291442 0)
(0.074857 -0.0310284 0)
(0.0734969 -0.0318845 0)
(0.072353 -0.0319127 0)
(0.0713976 -0.0312929 0)
(0.0705984 -0.0301664 0)
(0.0699076 -0.0286881 0)
(0.0692824 -0.0269815 0)
(0.0686668 -0.0251621 0)
(0.0680636 -0.0233569 0)
(0.0673484 -0.0216487 0)
(0.0667558 -0.0202473 0)
(0.0656494 -0.0190909 0)
(0.0999857 0.00288312 0)
(0.0998372 0.00897021 0)
(0.0996317 0.0155934 0)
(0.0994387 0.0228725 0)
(0.0993005 0.0308096 0)
(0.0992085 0.0393453 0)
(0.09912 0.0483754 0)
(0.0989507 0.0577865 0)
(0.09858 0.0674766 0)
(0.0978075 0.0774267 0)
(0.0963847 0.0877474 0)
(0.0937756 0.099034 0)
(0.088945 0.112358 0)
(0.0810323 0.135476 0)
(0.0490734 0.185666 0)
(0.0399947 0.0692723 0)
(0.0581503 0.0394273 0)
(0.069231 0.0218976 0)
(0.0708032 0.00862486 0)
(0.0693587 -0.00222527 0)
(0.0662654 -0.0109352 0)
(0.0621205 -0.0177634 0)
(0.0573934 -0.0225788 0)
(0.0522956 -0.0253771 0)
(0.0470296 -0.0260001 0)
(0.0417741 -0.0242222 0)
(0.0367703 -0.0196845 0)
(0.0315958 -0.0106771 0)
(0.03133 0.00621395 0)
(0.0592584 0.0470702 0)
(0.0884323 0.0286697 0)
(0.0978394 0.01414 0)
(0.0992085 0.00200291 0)
(0.0982652 -0.00660733 0)
(0.0959202 -0.0142616 0)
(0.0932061 -0.0201506 0)
(0.0905139 -0.0246556 0)
(0.0879289 -0.0278531 0)
(0.0855851 -0.0298814 0)
(0.0835287 -0.0308948 0)
(0.0817561 -0.031072 0)
(0.0802317 -0.0305764 0)
(0.0789169 -0.0295498 0)
(0.077761 -0.0281397 0)
(0.0767208 -0.0264735 0)
(0.075734 -0.0246694 0)
(0.074811 -0.0228595 0)
(0.073803 -0.0211341 0)
(0.0729973 -0.0197124 0)
(0.0715924 -0.0185492 0)
(0.0999917 0.0029236 0)
(0.0999297 0.009046 0)
(0.0998744 0.0156655 0)
(0.0998815 0.0229078 0)
(0.0999901 0.030797 0)
(0.100205 0.0392942 0)
(0.100508 0.0483158 0)
(0.100853 0.0577672 0)
(0.101184 0.0675696 0)
(0.101402 0.0777294 0)
(0.101489 0.0883927 0)
(0.101242 0.100207 0)
(0.101709 0.114352 0)
(0.100877 0.138486 0)
(0.13675 0.175141 0)
(0.1577 0.0821627 0)
(0.11717 0.0403959 0)
(0.106806 0.0229957 0)
(0.0989593 0.0105522 0)
(0.0926509 0.000429751 0)
(0.0867055 -0.00795085 0)
(0.0809312 -0.0145667 0)
(0.075309 -0.0192925 0)
(0.0699278 -0.0221164 0)
(0.0649509 -0.0229045 0)
(0.0606243 -0.0214928 0)
(0.0575622 -0.0175122 0)
(0.0555551 -0.00930566 0)
(0.0614573 0.00648885 0)
(0.080932 0.0198871 0)
(0.102467 0.0191004 0)
(0.109982 0.0116227 0)
(0.111495 0.00219168 0)
(0.11056 -0.00544073 0)
(0.108258 -0.0125327 0)
(0.10506 -0.0182477 0)
(0.101845 -0.0228025 0)
(0.0987087 -0.0261214 0)
(0.0958 -0.0283218 0)
(0.0931869 -0.0295237 0)
(0.0908818 -0.0298794 0)
(0.0888595 -0.0295387 0)
(0.0870846 -0.0286408 0)
(0.0855076 -0.0273277 0)
(0.0840883 -0.0257297 0)
(0.0827597 -0.0239679 0)
(0.0815402 -0.0221788 0)
(0.080257 -0.0204605 0)
(0.0792498 -0.0190377 0)
(0.0775569 -0.0178827 0)
(0.0999974 0.00293408 0)
(0.100021 0.00904731 0)
(0.100114 0.0156281 0)
(0.100319 0.022804 0)
(0.10067 0.0306126 0)
(0.101183 0.0390274 0)
(0.101864 0.0479766 0)
(0.102704 0.0573729 0)
(0.103704 0.0671399 0)
(0.104856 0.0772655 0)
(0.10632 0.0878406 0)
(0.108113 0.099255 0)
(0.112105 0.112086 0)
(0.11663 0.1284 0)
(0.150101 0.14539 0)
(0.176339 0.0911808 0)
(0.150514 0.0548248 0)
(0.13529 0.0321107 0)
(0.123089 0.0168036 0)
(0.113771 0.00535346 0)
(0.105828 -0.00364135 0)
(0.0988096 -0.010611 0)
(0.0924773 -0.015652 0)
(0.0868246 -0.018827 0)
(0.0819637 -0.0201008 0)
(0.0781149 -0.0194242 0)
(0.0758097 -0.0165698 0)
(0.0751884 -0.0108223 0)
(0.0797687 -0.000350842 0)
(0.0931308 0.0115193 0)
(0.108531 0.0124639 0)
(0.116347 0.00838664 0)
(0.119514 0.00175987 0)
(0.119553 -0.00497648 0)
(0.118145 -0.0108597 0)
(0.115248 -0.0162509 0)
(0.111972 -0.0207442 0)
(0.108622 -0.0241268 0)
(0.105383 -0.0264713 0)
(0.102383 -0.0278538 0)
(0.0996665 -0.0283944 0)
(0.0972346 -0.0282238 0)
(0.0950665 -0.0274735 0)
(0.0931206 -0.0262791 0)
(0.0913632 -0.0247718 0)
(0.0897255 -0.0230747 0)
(0.0882352 -0.0213282 0)
(0.0866963 -0.0196375 0)
(0.0855004 -0.0182298 0)
(0.0835323 -0.0170962 0)
(0.100003 0.00291526 0)
(0.100109 0.00897545 0)
(0.100347 0.0154835 0)
(0.100743 0.0225646 0)
(0.101328 0.0302617 0)
(0.102128 0.0385534 0)
(0.103167 0.0473716 0)
(0.104469 0.0566263 0)
(0.106085 0.0662283 0)
(0.108075 0.0761224 0)
(0.110711 0.0863082 0)
(0.114152 0.096869 0)
(0.120311 0.107871 0)
(0.12826 0.11818 0)
(0.154383 0.124923 0)
(0.175037 0.0915769 0)
(0.164636 0.0637581 0)
(0.152945 0.0407255 0)
(0.141202 0.0239109 0)
(0.131284 0.0112339 0)
(0.122608 0.0013968 0)
(0.115015 -0.00618496 0)
(0.108318 -0.0117608 0)
(0.102512 -0.0154807 0)
(0.0976792 -0.0173986 0)
(0.0939979 -0.0175513 0)
(0.0918138 -0.0157994 0)
(0.0914152 -0.0117929 0)
(0.0942975 -0.00479888 0)
(0.103182 0.00388426 0)
(0.114191 0.00613177 0)
(0.121469 0.00462903 0)
(0.125545 0.000341167 0)
(0.12655 -0.00486062 0)
(0.125961 -0.00978103 0)
(0.123876 -0.0144924 0)
(0.120869 -0.0187205 0)
(0.117606 -0.0220482 0)
(0.114269 -0.0244606 0)
(0.111057 -0.0259809 0)
(0.108061 -0.0266872 0)
(0.105319 -0.0266837 0)
(0.102833 -0.0260874 0)
(0.100576 -0.0250247 0)
(0.0985265 -0.0236239 0)
(0.0966154 -0.0220089 0)
(0.094882 -0.0203224 0)
(0.0931089 -0.0186759 0)
(0.0917385 -0.0172967 0)
(0.0895104 -0.0161957 0)
(0.100008 0.00286828 0)
(0.100193 0.00883307 0)
(0.10057 0.0152358 0)
(0.101147 0.022195 0)
(0.101955 0.0297521 0)
(0.103023 0.037884 0)
(0.104395 0.0465195 0)
(0.106119 0.0555586 0)
(0.108282 0.0648899 0)
(0.110992 0.074404 0)
(0.114565 0.0839998 0)
(0.119231 0.0934948 0)
(0.126607 0.102591 0)
(0.136138 0.109086 0)
(0.155608 0.111648 0)
(0.171953 0.0885231 0)
(0.169523 0.0677508 0)
(0.162998 0.0469985 0)
(0.153776 0.0302427 0)
(0.144922 0.0170047 0)
(0.136623 0.00653269 0)
(0.129145 -0.00164269 0)
(0.122487 -0.00779681 0)
(0.116717 -0.0121197 0)
(0.111929 -0.0147208 0)
(0.10827 -0.0156832 0)
(0.105952 -0.0149362 0)
(0.105293 -0.0122685 0)
(0.106873 -0.00755524 0)
(0.112656 -0.00135363 0)
(0.120484 0.0012668 0)
(0.126641 0.00114793 0)
(0.130789 -0.00141803 0)
(0.132449 -0.00518202 0)
(0.132462 -0.00934114 0)
(0.131201 -0.0130583 0)
(0.128672 -0.0168858 0)
(0.125692 -0.0200314 0)
(0.122445 -0.0224104 0)
(0.119182 -0.0240002 0)
(0.116037 -0.0248313 0)
(0.113087 -0.0249744 0)
(0.110363 -0.0245258 0)
(0.107857 -0.0235979 0)
(0.105563 -0.0223122 0)
(0.103417 -0.020791 0)
(0.10147 -0.019177 0)
(0.0994855 -0.0175874 0)
(0.0979562 -0.016247 0)
(0.0954849 -0.015188 0)
(0.100013 0.00279473 0)
(0.100272 0.008624 0)
(0.100778 0.014891 0)
(0.101525 0.0217029 0)
(0.10254 0.029094 0)
(0.103857 0.0370336 0)
(0.105533 0.0454426 0)
(0.107634 0.0542062 0)
(0.11027 0.0631871 0)
(0.113573 0.0722233 0)
(0.117858 0.0811244 0)
(0.123356 0.0895248 0)
(0.13127 0.0969025 0)
(0.140965 0.101224 0)
(0.156443 0.101041 0)
(0.169395 0.0848172 0)
(0.170872 0.0686419 0)
(0.168499 0.0508499 0)
(0.162184 0.0351358 0)
(0.155164 0.0220061 0)
(0.147951 0.0112743 0)
(0.141122 0.00269048 0)
(0.134863 -0.00395237 0)
(0.129342 -0.0088297 0)
(0.124686 -0.0120655 0)
(0.121039 -0.0137576 0)
(0.118543 -0.0138847 0)
(0.117513 -0.012306 0)
(0.118169 -0.00920149 0)
(0.121759 -0.00483936 0)
(0.127248 -0.00239188 0)
(0.132143 -0.00183997 0)
(0.135881 -0.00324539 0)
(0.137827 -0.00587553 0)
(0.138259 -0.00910523 0)
(0.13752 -0.012079 0)
(0.135579 -0.0153318 0)
(0.132972 -0.018174 0)
(0.129948 -0.020417 0)
(0.126763 -0.0219964 0)
(0.123584 -0.0228969 0)
(0.120523 -0.0231526 0)
(0.11764 -0.0228334 0)
(0.114948 -0.0220336 0)
(0.11246 -0.0208644 0)
(0.110119 -0.0194427 0)
(0.10799 -0.0179091 0)
(0.105819 -0.016385 0)
(0.104148 -0.0150905 0)
(0.101452 -0.0140808 0)
(0.100017 0.00269661 0)
(0.100344 0.00835314 0)
(0.100968 0.0144562 0)
(0.101871 0.0210976 0)
(0.103075 0.0282992 0)
(0.104619 0.0360186 0)
(0.106568 0.0441648 0)
(0.109 0.052607 0)
(0.112037 0.0611829 0)
(0.115816 0.0696882 0)
(0.12062 0.0778618 0)
(0.126641 0.0852351 0)
(0.134621 0.0913201 0)
(0.144215 0.0940262 0)
(0.156991 0.0927095 0)
(0.167644 0.0807147 0)
(0.171153 0.0678402 0)
(0.171513 0.0527277 0)
(0.167782 0.0385111 0)
(0.162747 0.025963 0)
(0.156948 0.0153313 0)
(0.151096 0.00657926 0)
(0.145502 -0.000393219 0)
(0.140418 -0.00571084 0)
(0.136013 -0.00948098 0)
(0.132442 -0.011794 0)
(0.129831 -0.0126622 0)
(0.128444 -0.0120201 0)
(0.128487 -0.00999514 0)
(0.130482 -0.00713031 0)
(0.134235 -0.00506504 0)
(0.137946 -0.004251 0)
(0.14107 -0.00492064 0)
(0.142981 -0.00667408 0)
(0.143627 -0.00912208 0)
(0.143234 -0.0113969 0)
(0.141793 -0.0140636 0)
(0.139577 -0.0165234 0)
(0.136845 -0.0185463 0)
(0.13383 -0.0200374 0)
(0.130712 -0.0209458 0)
(0.127625 -0.021271 0)
(0.124657 -0.021054 0)
(0.121842 -0.0203675 0)
(0.119211 -0.0193087 0)
(0.116715 -0.0179864 0)
(0.114436 -0.0165361 0)
(0.112105 -0.0150821 0)
(0.110309 -0.0138375 0)
(0.10741 -0.0128825 0)
(0.100021 0.00257635 0)
(0.100408 0.00802638 0)
(0.101138 0.0139402 0)
(0.10218 0.0203898 0)
(0.103554 0.0273811 0)
(0.105301 0.0348559 0)
(0.107492 0.0427099 0)
(0.110213 0.0507963 0)
(0.113587 0.0589318 0)
(0.117743 0.0668738 0)
(0.122908 0.0743395 0)
(0.129196 0.0808637 0)
(0.137187 0.0857772 0)
(0.14639 0.0875918 0)
(0.157342 0.0857982 0)
(0.166533 0.0766764 0)
(0.171233 0.0657705 0)
(0.173138 0.0533146 0)
(0.171623 0.0405517 0)
(0.168393 0.0288478 0)
(0.164067 0.0185835 0)
(0.159336 0.00988728 0)
(0.154567 0.00276195 0)
(0.15006 -0.00285366 0)
(0.14602 -0.00703283 0)
(0.142616 -0.0098466 0)
(0.139984 -0.0113212 0)
(0.138332 -0.0114338 0)
(0.137882 -0.0103266 0)
(0.138879 -0.0084815 0)
(0.141262 -0.00693001 0)
(0.143949 -0.00609814 0)
(0.146401 -0.00633595 0)
(0.148078 -0.00745764 0)
(0.148763 -0.00924254 0)
(0.148569 -0.0109358 0)
(0.147506 -0.0130439 0)
(0.145643 -0.0150871 0)
(0.143221 -0.0168331 0)
(0.140428 -0.0181717 0)
(0.137441 -0.0190287 0)
(0.134401 -0.0193764 0)
(0.131415 -0.0192285 0)
(0.128535 -0.0186342 0)
(0.125811 -0.0176736 0)
(0.123202 -0.0164452 0)
(0.120806 -0.0150765 0)
(0.118342 -0.0136932 0)
(0.11644 -0.0124992 0)
(0.11336 -0.0116024 0)
(0.100024 0.00243673 0)
(0.100463 0.00765037 0)
(0.101285 0.0133524 0)
(0.102448 0.0195912 0)
(0.103972 0.0263533 0)
(0.105899 0.0335628 0)
(0.108304 0.041101 0)
(0.111275 0.0488068 0)
(0.114926 0.05648 0)
(0.119363 0.0638878 0)
(0.124781 0.0706911 0)
(0.131275 0.0763868 0)
(0.139136 0.0804575 0)
(0.147906 0.0816873 0)
(0.157622 0.0797679 0)
(0.165989 0.0725213 0)
(0.171203 0.0633884 0)
(0.174105 0.0527638 0)
(0.174378 0.0414332 0)
(0.172681 0.0307457 0)
(0.169737 0.0210219 0)
(0.166149 0.0125587 0)
(0.162275 0.00544345 0)
(0.158432 -0.000325925 0)
(0.154845 -0.00478337 0)
(0.151698 -0.00797561 0)
(0.149136 -0.00992935 0)
(0.14734 -0.0106533 0)
(0.146525 -0.0102678 0)
(0.146842 -0.00921699 0)
(0.148203 -0.00814681 0)
(0.150034 -0.0074343 0)
(0.151838 -0.00744684 0)
(0.153183 -0.00813355 0)
(0.153784 -0.00938834 0)