/*--------------------------------*- C++ -*----------------------------------*\
| =========                 |                                                 |
| \\      /  F ield         | OpenFOAM: The Open Source CFD Toolbox           |
|  \\    /   O peration     | Version:  v1906                                 |
|   \\  /    A nd           | Web:      www.OpenFOAM.com                      |
|    \\/     M anipulation  |                                                 |
\*---------------------------------------------------------------------------*/
FoamFile
{
    version     2.0;
    format      ascii;
    class       volScalarField;
    location    "0.7";
    object      p;
}
// * * * * * * * * * * * * * * * * * * * * * * * * * * * * * * * * * * * * * //

dimensions      [0 2 -2 0 0 0 0];


internalField   nonuniform List<scalar> 
1600
(
-3.23482e-05
-48.8274
-78.8484
-93.4208
-101.524
-106.571
-109.826
-112.054
-113.711
-115.028
-116.121
-117.055
-117.868
-118.589
-119.234
-119.817
-120.35
-120.84
-121.295
-121.719
-122.117
-122.492
-122.848
-123.188
-123.513
-123.826
-124.128
-124.421
-124.707
-124.986
-125.26
-125.529
-125.795
-126.059
-126.321
-126.582
-126.842
-127.1
-127.36
-127.57
-42.3506
-63.5269
-80.8444
-91.5375
-98.6392
-103.744
-107.425
-110.11
-112.145
-113.753
-115.064
-116.163
-117.104
-117.925
-118.65
-119.3
-119.887
-120.424
-120.918
-121.376
-121.804
-122.206
-122.585
-122.945
-123.289
-123.619
-123.936
-124.243
-124.541
-124.832
-125.116
-125.396
-125.671
-125.944
-126.214
-126.481
-126.746
-127.009
-127.279
-127.529
-67.1207
-74.9446
-84.13
-91.8507
-97.8848
-102.586
-106.199
-108.969
-111.133
-112.869
-114.296
-115.493
-116.516
-117.405
-118.187
-118.885
-119.513
-120.085
-120.609
-121.094
-121.544
-121.966
-122.364
-122.74
-123.099
-123.441
-123.771
-124.089
-124.397
-124.697
-124.99
-125.278
-125.561
-125.841
-126.118
-126.393
-126.666
-126.939
-127.225
-127.524
-79.6671
-82.7883
-87.985
-93.5118
-98.3593
-102.382
-105.66
-108.311
-110.462
-112.231
-113.707
-114.957
-116.031
-116.965
-117.789
-118.523
-119.183
-119.783
-120.332
-120.838
-121.308
-121.747
-122.159
-122.549
-122.92
-123.274
-123.613
-123.94
-124.257
-124.565
-124.866
-125.16
-125.45
-125.737
-126.021
-126.304
-126.589
-126.877
-127.178
-127.523
-87.2948
-88.7551
-91.853
-95.6907
-99.3887
-102.668
-105.506
-107.928
-109.979
-111.717
-113.198
-114.471
-115.575
-116.543
-117.399
-118.163
-118.851
-119.475
-120.047
-120.573
-121.061
-121.516
-121.943
-122.346
-122.729
-123.093
-123.442
-123.778
-124.103
-124.418
-124.726
-125.027
-125.323
-125.616
-125.908
-126.2
-126.496
-126.798
-127.114
-127.494
-92.5611
-93.3642
-95.2879
-97.9329
-100.703
-103.322
-105.711
-107.846
-109.726
-111.37
-112.806
-114.064
-115.172
-116.152
-117.026
-117.81
-118.518
-119.163
-119.753
-120.297
-120.801
-121.271
-121.712
-122.127
-122.52
-122.895
-123.253
-123.597
-123.929
-124.251
-124.564
-124.871
-125.173
-125.472
-125.77
-126.07
-126.374
-126.689
-127.013
-127.418
-96.4337
-96.9324
-98.1894
-100.047
-102.13
-104.21
-106.192
-108.031
-109.707
-111.215
-112.565
-113.772
-114.852
-115.822
-116.695
-117.484
-118.202
-118.858
-119.46
-120.017
-120.533
-121.015
-121.467
-121.892
-122.295
-122.678
-123.044
-123.395
-123.733
-124.06
-124.379
-124.69
-124.997
-125.3
-125.602
-125.906
-126.215
-126.537
-126.863
-127.278
-99.4216
-99.7591
-100.626
-101.968
-103.552
-105.205
-106.84
-108.406
-109.875
-111.231
-112.473
-113.605
-114.634
-115.571
-116.425
-117.205
-117.919
-118.576
-119.183
-119.745
-120.268
-120.757
-121.216
-121.648
-122.058
-122.447
-122.819
-123.175
-123.517
-123.848
-124.17
-124.484
-124.792
-125.097
-125.4
-125.705
-126.014
-126.335
-126.655
-127.065
-101.815
-102.058
-102.683
-103.68
-104.902
-106.223
-107.571
-108.899
-110.175
-111.381
-112.507
-113.552
-114.517
-115.407
-116.228
-116.985
-117.685
-118.332
-118.934
-119.494
-120.017
-120.508
-120.969
-121.405
-121.817
-122.21
-122.584
-122.942
-123.287
-123.62
-123.942
-124.256
-124.564
-124.867
-125.167
-125.468
-125.771
-126.084
-126.39
-126.781
-103.784
-103.966
-104.435
-105.194
-106.151
-107.216
-108.332
-109.458
-110.563
-111.628
-112.641
-113.595
-114.489
-115.325
-116.103
-116.828
-117.504
-118.134
-118.723
-119.275
-119.792
-120.278
-120.737
-121.171
-121.583
-121.975
-122.349
-122.706
-123.05
-123.382
-123.702
-124.013
-124.317
-124.615
-124.909
-125.201
-125.492
-125.791
-126.077
-126.435
-105.438
-105.578
-105.939
-106.532
-107.293
-108.161
-109.089
-110.045
-111.002
-111.94
-112.846
-113.713
-114.535
-115.312
-116.043
-116.731
-117.377
-117.984
-118.555
-119.092
-119.598
-120.075
-120.527
-120.956
-121.363
-121.75
-122.121
-122.475
-122.815
-123.142
-123.458
-123.764
-124.061
-124.351
-124.635
-124.914
-125.19
-125.468
-125.729
-126.046
-106.848
-106.959
-107.244
-107.716
-108.331
-109.045
-109.823
-110.638
-111.468
-112.293
-113.102
-113.885
-114.638
-115.356
-116.039
-116.687
-117.3
-117.88
-118.428
-118.946
-119.437
-119.902
-120.344
-120.763
-121.162
-121.543
-121.906
-122.254
-122.588
-122.908
-123.217
-123.515
-123.803
-124.082
-124.353
-124.618
-124.874
-125.129
-125.362
-125.634
-108.067
-108.157
-108.386
-108.768
-109.273
-109.866
-110.523
-111.221
-111.942
-112.669
-113.39
-114.097
-114.784
-115.445
-116.08
-116.687
-117.265
-117.816
-118.339
-118.837
-119.31
-119.759
-120.187
-120.595
-120.984
-121.355
-121.71
-122.049
-122.374
-122.686
-122.986
-123.273
-123.55
-123.817
-124.074
-124.321
-124.558
-124.787
-124.992
-125.219
-109.132
-109.205
-109.394
-109.708
-110.127
-110.625
-111.184
-111.785
-112.413
-113.055
-113.698
-114.336
-114.961
-115.569
-116.157
-116.723
-117.266
-117.787
-118.284
-118.759
-119.212
-119.645
-120.058
-120.453
-120.829
-121.189
-121.533
-121.862
-122.177
-122.479
-122.768
-123.045
-123.309
-123.563
-123.804
-124.034
-124.25
-124.454
-124.634
-124.819
-110.071
-110.132
-110.288
-110.551
-110.902
-111.325
-111.804
-112.324
-112.874
-113.441
-114.016
-114.591
-115.159
-115.717
-116.261
-116.788
-117.297
-117.787
-118.258
-118.71
-119.143
-119.557
-119.954
-120.334
-120.697
-121.044
-121.377
-121.695
-121.999
-122.289
-122.567
-122.831
-123.083
-123.323
-123.549
-123.761
-123.958
-124.14
-124.295
-124.445
-110.905
-110.957
-111.088
-111.31
-111.608
-111.97
-112.383
-112.836
-113.32
-113.822
-114.337
-114.856
-115.373
-115.884
-116.386
-116.875
-117.351
-117.812
-118.257
-118.685
-119.097
-119.493
-119.873
-120.237
-120.586
-120.921
-121.24
-121.546
-121.839
-122.117
-122.383
-122.636
-122.875
-123.1
-123.312
-123.508
-123.687
-123.849
-123.984
-124.105
-111.652
-111.695
-111.807
-111.996
-112.252
-112.564
-112.923
-113.32
-113.747
-114.194
-114.655
-115.124
-115.595
-116.063
-116.526
-116.981
-117.425
-117.857
-118.276
-118.681
-119.073
-119.45
-119.812
-120.161
-120.496
-120.816
-121.123
-121.417
-121.697
-121.964
-122.218
-122.458
-122.685
-122.897
-123.095
-123.276
-123.44
-123.585
-123.704
-123.803
-112.323
-112.36
-112.457
-112.62
-112.841
-113.112
-113.426
-113.776
-114.154
-114.553
-114.968
-115.392
-115.821
-116.251
-116.678
-117.1
-117.514
-117.918
-118.313
-118.695
-119.066
-119.425
-119.77
-120.103
-120.423
-120.73
-121.024
-121.305
-121.573
-121.828
-122.07
-122.299
-122.514
-122.714
-122.899
-123.067
-123.217
-123.348
-123.454
-123.537
-112.93
-112.962
-113.046
-113.188
-113.381
-113.618
-113.894
-114.204
-114.541
-114.899
-115.273
-115.657
-116.049
-116.443
-116.837
-117.228
-117.614
-117.993
-118.363
-118.724
-119.075
-119.415
-119.744
-120.061
-120.366
-120.66
-120.941
-121.209
-121.466
-121.709
-121.94
-122.158
-122.361
-122.55
-122.724
-122.881
-123.02
-123.139
-123.235
-123.307
-113.481
-113.509
-113.582
-113.707
-113.876
-114.086
-114.33
-114.606
-114.907
-115.229
-115.567
-115.917
-116.275
-116.637
-117.001
-117.364
-117.723
-118.078
-118.426
-118.766
-119.098
-119.42
-119.732
-120.034
-120.325
-120.605
-120.873
-121.13
-121.375
-121.607
-121.827
-122.034
-122.227
-122.405
-122.569
-122.716
-122.845
-122.956
-123.045
-123.109
-113.983
-114.008
-114.073
-114.182
-114.332
-114.518
-114.736
-114.983
-115.253
-115.544
-115.851
-116.17
-116.498
-116.831
-117.168
-117.504
-117.839
-118.171
-118.498
-118.818
-119.132
-119.437
-119.733
-120.02
-120.297
-120.564
-120.82
-121.065
-121.298
-121.52
-121.729
-121.926
-122.11
-122.279
-122.433
-122.572
-122.694
-122.797
-122.88
-122.941
-114.442
-114.464
-114.522
-114.619
-114.753
-114.919
-115.114
-115.336
-115.58
-115.844
-116.123
-116.415
-116.716
-117.023
-117.335
-117.648
-117.96
-118.271
-118.578
-118.879
-119.175
-119.464
-119.745
-120.018
-120.281
-120.535
-120.78
-121.013
-121.236
-121.447
-121.647
-121.834
-122.009
-122.17
-122.316
-122.448
-122.563
-122.661
-122.74
-122.798
-114.863
-114.883
-114.934
-115.021
-115.141
-115.29
-115.467
-115.667
-115.889
-116.128
-116.384
-116.651
-116.928
-117.213
-117.501
-117.793
-118.085
-118.375
-118.664
-118.948
-119.227
-119.501
-119.767
-120.026
-120.277
-120.519
-120.751
-120.974
-121.187
-121.389
-121.579
-121.758
-121.924
-122.077
-122.216
-122.341
-122.451
-122.545
-122.621
-122.678
-115.25
-115.268
-115.314
-115.392
-115.501
-115.635
-115.795
-115.977
-116.179
-116.398
-116.633
-116.879
-117.135
-117.398
-117.666
-117.938
-118.211
-118.484
-118.755
-119.023
-119.286
-119.545
-119.798
-120.044
-120.283
-120.513
-120.735
-120.947
-121.15
-121.342
-121.524
-121.695
-121.853
-121.999
-122.133
-122.252
-122.357
-122.447
-122.521
-122.578
-115.606
-115.622
-115.664
-115.735
-115.833
-115.956
-116.101
-116.268
-116.453
-116.654
-116.87
-117.097
-117.334
-117.579
-117.829
-118.083
-118.338
-118.594
-118.849
-119.102
-119.352
-119.597
-119.837
-120.071
-120.297
-120.517
-120.728
-120.931
-121.124
-121.308
-121.482
-121.645
-121.796
-121.936
-122.064
-122.178
-122.279
-122.367
-122.439
-122.495
-115.934
-115.949
-115.987
-116.052
-116.142
-116.254
-116.387
-116.54
-116.71
-116.896
-117.096
-117.306
-117.527
-117.755
-117.988
-118.226
-118.466
-118.707
-118.947
-119.186
-119.422
-119.655
-119.883
-120.105
-120.321
-120.53
-120.731
-120.925
-121.11
-121.285
-121.451
-121.607
-121.752
-121.886
-122.009
-122.119
-122.217
-122.301
-122.372
-122.429
-116.236
-116.25
-116.285
-116.345
-116.428
-116.531
-116.654
-116.795
-116.953
-117.125
-117.31
-117.507
-117.712
-117.926
-118.144
-118.368
-118.593
-118.821
-119.048
-119.274
-119.498
-119.718
-119.935
-120.146
-120.352
-120.551
-120.743
-120.928
-121.105
-121.273
-121.432
-121.581
-121.72
-121.849
-121.966
-122.073
-122.167
-122.25
-122.32
-122.377
-116.516
-116.528
-116.561
-116.616
-116.693
-116.789
-116.903
-117.034
-117.181
-117.342
-117.515
-117.698
-117.891
-118.091
-118.297
-118.507
-118.72
-118.935
-119.15
-119.364
-119.577
-119.786
-119.992
-120.194
-120.39
-120.58
-120.764
-120.94
-121.109
-121.27
-121.422
-121.565
-121.699
-121.823
-121.936
-122.039
-122.131
-122.212
-122.28
-122.338
-116.773
-116.785
-116.815
-116.867
-116.939
-117.028
-117.135
-117.258
-117.395
-117.546
-117.709
-117.881
-118.063
-118.251
-118.446
-118.644
-118.846
-119.049
-119.254
-119.457
-119.659
-119.859
-120.055
-120.247
-120.434
-120.616
-120.792
-120.961
-121.122
-121.277
-121.422
-121.56
-121.688
-121.807
-121.917
-122.016
-122.106
-122.185
-122.253
-122.31
-117.011
-117.022
-117.05
-117.099
-117.166
-117.251
-117.352
-117.467
-117.597
-117.739
-117.893
-118.056
-118.228
-118.406
-118.59
-118.779
-118.97
-119.164
-119.358
-119.552
-119.745
-119.935
-120.122
-120.306
-120.485
-120.659
-120.827
-120.989
-121.144
-121.292
-121.432
-121.564
-121.687
-121.802
-121.908
-122.004
-122.091
-122.169
-122.236
-122.294
-117.229
-117.239
-117.267
-117.313
-117.377
-117.457
-117.553
-117.663
-117.786
-117.922
-118.067
-118.223
-118.386
-118.556
-118.731
-118.911
-119.094
-119.278
-119.463
-119.649
-119.833
-120.015
-120.194
-120.37
-120.541
-120.708
-120.869
-121.024
-121.173
-121.315
-121.449
-121.576
-121.695
-121.806
-121.908
-122.002
-122.087
-122.163
-122.229
-122.287
-117.429
-117.439
-117.465
-117.51
-117.572
-117.649
-117.741
-117.846
-117.964
-118.094
-118.233
-118.382
-118.538
-118.701
-118.868
-119.04
-119.215
-119.392
-119.569
-119.747
-119.923
-120.098
-120.269
-120.438
-120.602
-120.762
-120.917
-121.066
-121.209
-121.345
-121.475
-121.597
-121.712
-121.819
-121.918
-122.009
-122.091
-122.166
-122.231
-122.29
-117.612
-117.622
-117.647
-117.691
-117.751
-117.826
-117.914
-118.017
-118.131
-118.256
-118.39
-118.533
-118.684
-118.84
-119.002
-119.167
-119.335
-119.505
-119.676
-119.846
-120.016
-120.184
-120.349
-120.511
-120.669
-120.822
-120.971
-121.114
-121.252
-121.383
-121.507
-121.625
-121.736
-121.839
-121.935
-122.024
-122.104
-122.178
-122.242
-122.3
-117.778
-117.788
-117.813
-117.856
-117.915
-117.988
-118.076
-118.175
-118.287
-118.408
-118.539
-118.678
-118.824
-118.976
-119.132
-119.292
-119.454
-119.618
-119.783
-119.948
-120.111
-120.273
-120.432
-120.588
-120.74
-120.888
-121.031
-121.169
-121.301
-121.427
-121.547
-121.661
-121.768
-121.868
-121.96
-122.046
-122.125
-122.197
-122.26
-122.319
-117.927
-117.937
-117.962
-118.005
-118.064
-118.138
-118.224
-118.323
-118.433
-118.552
-118.681
-118.817
-118.959
-119.107
-119.259
-119.414
-119.572
-119.731
-119.891
-120.05
-120.208
-120.365
-120.518
-120.669
-120.816
-120.958
-121.096
-121.229
-121.357
-121.478
-121.594
-121.703
-121.806
-121.903
-121.993
-122.076
-122.153
-122.223
-122.286
-122.344
-118.059
-118.069
-118.095
-118.139
-118.2
-118.274
-118.361
-118.46
-118.569
-118.688
-118.815
-118.949
-119.089
-119.234
-119.383
-119.535
-119.689
-119.844
-119.999
-120.154
-120.308
-120.459
-120.608
-120.754
-120.896
-121.034
-121.167
-121.295
-121.418
-121.535
-121.647
-121.752
-121.852
-121.945
-122.032
-122.113
-122.187
-122.256
-122.317
-122.375
-118.173
-118.184
-118.212
-118.258
-118.32
-118.397
-118.485
-118.586
-118.696
-118.815
-118.941
-119.075
-119.214
-119.357
-119.504
-119.653
-119.804
-119.956
-120.108
-120.259
-120.409
-120.556
-120.701
-120.842
-120.98
-121.114
-121.242
-121.366
-121.485
-121.598
-121.706
-121.807
-121.903
-121.993
-122.077
-122.155
-122.227
-122.294
-122.355
-122.412
-118.27
-118.282
-118.313
-118.363
-118.429
-118.508
-118.6
-118.703
-118.815
-118.936
-119.063
-119.197
-119.336
-119.478
-119.624
-119.772
-119.921
-120.07
-120.219
-120.367
-120.514
-120.657
-120.798
-120.936
-121.07
-121.199
-121.324
-121.443
-121.558
-121.667
-121.771
-121.869
-121.961
-122.047
-122.128
-122.203
-122.273
-122.338
-122.397
-122.454
-118.344
-118.362
-118.399
-118.456
-118.529
-118.614
-118.711
-118.819
-118.935
-119.058
-119.188
-119.324
-119.464
-119.607
-119.752
-119.899
-120.047
-120.195
-120.342
-120.487
-120.631
-120.772
-120.909
-121.043
-121.173
-121.298
-121.419
-121.534
-121.645
-121.749
-121.849
-121.943
-122.031
-122.114
-122.191
-122.263
-122.33
-122.392
-122.449
-122.504
-118.384
-118.408
-118.454
-118.519
-118.6
-118.692
-118.795
-118.908
-119.029
-119.156
-119.289
-119.427
-119.569
-119.714
-119.86
-120.007
-120.155
-120.302
-120.448
-120.592
-120.734
-120.873
-121.008
-121.139
-121.266
-121.388
-121.505
-121.618
-121.725
-121.826
-121.922
-122.012
-122.097
-122.176
-122.251
-122.32
-122.384
-122.444
-122.499
-122.55
)
;

boundaryField
{
    movingWall
    {
        type            zeroGradient;
    }
    bottomWall
    {
        type            zeroGradient;
    }
    leftSide
    {
        type            zeroGradient;
    }
    rightSide
    {
        type            zeroGradient;
    }
    frontAndBack
    {
        type            empty;
    }
}


// ************************************************************************* //
