/*--------------------------------*- C++ -*----------------------------------*\
| =========                 |                                                 |
| \\      /  F ield         | OpenFOAM: The Open Source CFD Toolbox           |
|  \\    /   O peration     | Version:  v1906                                 |
|   \\  /    A nd           | Web:      www.OpenFOAM.com                      |
|    \\/     M anipulation  |                                                 |
\*---------------------------------------------------------------------------*/
FoamFile
{
    version     2.0;
    format      ascii;
    class       volVectorField;
    location    "0.7";
    object      U;
}
// * * * * * * * * * * * * * * * * * * * * * * * * * * * * * * * * * * * * * //

dimensions      [0 1 -1 0 0 0 0];


internalField   nonuniform List<vector> 
1600
(
(8.101 0.891242 0)
(7.08777 1.1084 0)
(5.651 0.82066 0)
(4.37142 0.527764 0)
(3.51652 0.32301 0)
(2.96031 0.196869 0)
(2.5767 0.124439 0)
(2.29941 0.0837187 0)
(2.09095 0.0603087 0)
(1.92787 0.0461396 0)
(1.79575 0.0369641 0)
(1.68582 0.030595 0)
(1.59253 0.0259052 0)
(1.51214 0.0222955 0)
(1.44202 0.0194276 0)
(1.38025 0.0170954 0)
(1.32539 0.0151652 0)
(1.27633 0.0135448 0)
(1.23218 0.0121682 0)
(1.19225 0.0109863 0)
(1.15598 0.00996188 0)
(1.12289 0.00906626 0)
(1.09262 0.00827687 0)
(1.06484 0.00757581 0)
(1.03929 0.00694872 0)
(1.01574 0.00638394 0)
(0.994004 0.005872 0)
(0.973916 0.00540517 0)
(0.955337 0.00497719 0)
(0.938148 0.00458314 0)
(0.922241 0.0042195 0)
(0.907521 0.00388441 0)
(0.893898 0.00357866 0)
(0.881281 0.00330796 0)
(0.869559 0.00308893 0)
(0.858581 0.00296247 0)
(0.848149 0.00301475 0)
(0.837794 0.00343057 0)
(0.825213 0.00468101 0)
(0.808701 0.00706022 0)
(10.0486 1.539 0)
(10.4597 2.2675 0)
(10.0952 2.02588 0)
(9.26488 1.58294 0)
(8.3787 1.17247 0)
(7.58215 0.852447 0)
(6.89811 0.62482 0)
(6.32309 0.469683 0)
(5.84423 0.364422 0)
(5.44432 0.291619 0)
(5.10701 0.23968 0)
(4.81911 0.201326 0)
(4.57055 0.172063 0)
(4.35368 0.1491 0)
(4.1627 0.130656 0)
(3.99316 0.115555 0)
(3.84157 0.102994 0)
(3.70521 0.0924038 0)
(3.58189 0.0833714 0)
(3.46984 0.0755882 0)
(3.36762 0.0688197 0)
(3.27402 0.062884 0)
(3.18806 0.0576383 0)
(3.10891 0.0529687 0)
(3.03585 0.0487837 0)
(2.9683 0.0450086 0)
(2.90574 0.0415827 0)
(2.84773 0.0384557 0)
(2.7939 0.0355868 0)
(2.74392 0.0329432 0)
(2.69749 0.0305 0)
(2.65437 0.0282412 0)
(2.61432 0.0261629 0)
(2.57709 0.0242802 0)
(2.54243 0.0226437 0)
(2.51004 0.0213749 0)
(2.47958 0.0207182 0)
(2.45063 0.0211104 0)
(2.42041 0.0235013 0)
(2.38499 0.0288839 0)
(10.1375 1.01381 0)
(10.7552 1.98137 0)
(11.0903 2.18428 0)
(11.0307 2.05757 0)
(10.7077 1.80771 0)
(10.2497 1.52857 0)
(9.73668 1.2695 0)
(9.21954 1.05049 0)
(8.72803 0.873615 0)
(8.27564 0.733419 0)
(7.8658 0.622691 0)
(7.49703 0.53477 0)
(7.16578 0.464236 0)
(6.86792 0.406939 0)
(6.59938 0.359786 0)
(6.35646 0.320496 0)
(6.13594 0.287375 0)
(5.93505 0.259156 0)
(5.75141 0.234882 0)
(5.58301 0.213815 0)
(5.42815 0.195383 0)
(5.28536 0.179135 0)
(5.15339 0.164711 0)
(5.03117 0.151822 0)
(4.91778 0.140231 0)
(4.81241 0.129746 0)
(4.71439 0.120207 0)
(4.62311 0.111481 0)
(4.53804 0.103459 0)
(4.45874 0.096053 0)
(4.38479 0.0891922 0)
(4.31585 0.0828274 0)
(4.25157 0.0769347 0)
(4.19167 0.0715257 0)
(4.13583 0.0666693 0)
(4.08375 0.062536 0)
(4.03512 0.0594629 0)
(3.98992 0.0579696 0)
(3.94626 0.0588022 0)
(3.89599 0.0636361 0)
(10.068 0.568826 0)
(10.5037 1.40451 0)
(10.9793 1.83685 0)
(11.2902 1.98414 0)
(11.3911 1.95721 0)
(11.3186 1.83135 0)
(11.1218 1.66062 0)
(10.8447 1.48001 0)
(10.523 1.30822 0)
(10.1825 1.15337 0)
(9.8402 1.01779 0)
(9.50662 0.900903 0)
(9.18763 0.800818 0)
(8.88618 0.715234 0)
(8.60332 0.641899 0)
(8.339 0.578807 0)
(8.09254 0.524244 0)
(7.86296 0.476786 0)
(7.64912 0.435261 0)
(7.44986 0.398709 0)
(7.26406 0.366345 0)
(7.09067 0.337525 0)
(6.92872 0.311715 0)
(6.7773 0.288477 0)
(6.63563 0.267442 0)
(6.50297 0.248304 0)
(6.37869 0.230803 0)
(6.2622 0.214722 0)
(6.15298 0.199877 0)
(6.05059 0.186116 0)
(5.9546 0.173316 0)
(5.86466 0.161383 0)
(5.78044 0.150259 0)
(5.70164 0.139929 0)
(5.62801 0.130445 0)
(5.55931 0.121959 0)
(5.49537 0.114778 0)
(5.43639 0.109386 0)
(5.38204 0.106079 0)
(5.31873 0.107101 0)
(10.0307 0.34863 0)
(10.2888 0.977786 0)
(10.6757 1.42422 0)
(11.0501 1.6844 0)
(11.3258 1.799 0)
(11.4834 1.8096 0)
(11.5317 1.75238 0)
(11.4881 1.65617 0)
(11.3731 1.54126 0)
(11.2066 1.4207 0)
(11.0053 1.30232 0)
(10.7825 1.1905 0)
(10.5484 1.08734 0)
(10.3102 0.993522 0)
(10.0731 0.908915 0)
(9.84051 0.832957 0)
(9.61482 0.764885 0)
(9.3974 0.703878 0)
(9.18904 0.64913 0)
(8.9901 0.599892 0)
(8.80065 0.555485 0)
(8.62058 0.515306 0)
(8.44966 0.478827 0)
(8.28759 0.445584 0)
(8.134 0.415173 0)
(7.98855 0.387245 0)
(7.85086 0.361493 0)
(7.72059 0.337654 0)
(7.59741 0.315497 0)
(7.481 0.294827 0)
(7.37107 0.275478 0)
(7.26737 0.257319 0)
(7.16967 0.240252 0)
(7.07776 0.224226 0)
(6.99149 0.209245 0)
(6.91077 0.195397 0)
(6.8356 0.182872 0)
(6.76613 0.172057 0)
(6.70399 0.16279 0)
(6.62974 0.157319 0)
(10.0157 0.238712 0)
(10.1659 0.704011 0)
(10.434 1.08699 0)
(10.7488 1.361 0)
(11.0423 1.53494 0)
(11.2811 1.6267 0)
(11.4532 1.6549 0)
(11.557 1.63714 0)
(11.5972 1.58841 0)
(11.5823 1.52033 0)
(11.5222 1.44142 0)
(11.4263 1.35772 0)
(11.3034 1.27331 0)
(11.1607 1.19083 0)
(11.0042 1.11189 0)
(10.839 1.03738 0)
(10.6687 0.967682 0)
(10.4965 0.902882 0)
(10.3245 0.842855 0)
(10.1544 0.78736 0)
(9.98758 0.736093 0)
(9.8248 0.68872 0)
(9.66672 0.644903 0)
(9.51378 0.604314 0)
(9.36625 0.566638 0)
(9.22428 0.531585 0)
(9.08795 0.498884 0)
(8.95729 0.46829 0)
(8.83227 0.43958 0)
(8.71283 0.412554 0)
(8.59893 0.387038 0)
(8.4905 0.36288 0)
(8.38749 0.339959 0)
(8.28987 0.318188 0)
(8.19763 0.297517 0)
(8.11084 0.277958 0)
(8.02973 0.259552 0)
(7.95417 0.24256 0)
(7.8879 0.226513 0)
(7.80596 0.212679 0)
(10.0094 0.176236 0)
(10.1013 0.528082 0)
(10.2804 0.84048 0)
(10.5159 1.08996 0)
(10.7653 1.27454 0)
(11.0007 1.40056 0)
(11.2062 1.47644 0)
(11.3728 1.51143 0)
(11.4967 1.51469 0)
(11.5782 1.49432 0)
(11.6201 1.45709 0)
(11.6266 1.40838 0)
(11.6026 1.35239 0)
(11.5529 1.29228 0)
(11.4822 1.23038 0)
(11.3947 1.16835 0)
(11.294 1.10736 0)
(11.1834 1.04817 0)
(11.0656 0.991261 0)
(10.9428 0.936915 0)
(10.8169 0.885252 0)
(10.6893 0.836288 0)
(10.5614 0.789966 0)
(10.4342 0.746179 0)
(10.3084 0.704793 0)
(10.1847 0.665651 0)
(10.0635 0.628592 0)
(9.94533 0.593449 0)
(9.83045 0.560057 0)
(9.71913 0.52826 0)
(9.61156 0.497907 0)
(9.50793 0.468861 0)
(9.40839 0.440995 0)
(9.3131 0.414203 0)
(9.22227 0.388393 0)
(9.13607 0.363506 0)
(9.05502 0.339456 0)
(8.97857 0.316347 0)
(8.91244 0.293674 0)
(8.82724 0.270671 0)
(10.0063 0.137039 0)
(10.0666 0.412015 0)
(10.1886 0.666103 0)
(10.3594 0.882325 0)
(10.5546 1.05597 0)
(10.7549 1.18871 0)
(10.9476 1.28428 0)
(11.1234 1.34737 0)
(11.276 1.38313 0)
(11.4021 1.39664 0)
(11.5003 1.39247 0)
(11.571 1.37461 0)
(11.6158 1.34644 0)
(11.6368 1.31074 0)
(11.6363 1.26977 0)
(11.617 1.22531 0)
(11.5816 1.17877 0)
(11.5323 1.13121 0)
(11.4716 1.08346 0)
(11.4014 1.03611 0)
(11.3237 0.989594 0)
(11.2399 0.944197 0)
(11.1516 0.900116 0)
(11.06 0.85746 0)
(10.966 0.81628 0)
(10.8708 0.776577 0)
(10.7749 0.73832 0)
(10.6791 0.701452 0)
(10.584 0.665897 0)
(10.49 0.631565 0)
(10.3976 0.598361 0)
(10.3071 0.56618 0)
(10.219 0.534915 0)
(10.1335 0.50446 0)
(10.051 0.474696 0)
(9.9718 0.445516 0)
(9.89668 0.416744 0)
(9.82465 0.388301 0)
(9.76297 0.359951 0)
(9.67961 0.328145 0)
(10.0045 0.110539 0)
(10.0467 0.332228 0)
(10.133 0.541555 0)
(10.2581 0.726708 0)
(10.4074 0.882886 0)
(10.5686 1.00992 0)
(10.7329 1.10948 0)
(10.8929 1.18407 0)
(11.043 1.23664 0)
(11.1792 1.27031 0)
(11.2986 1.28804 0)
(11.4 1.29257 0)
(11.4827 1.28633 0)
(11.5471 1.27145 0)
(11.5937 1.24975 0)
(11.6237 1.22277 0)
(11.6384 1.19181 0)
(11.6392 1.15793 0)
(11.6275 1.12201 0)
(11.6047 1.08474 0)
(11.5724 1.0467 0)
(11.5317 1.0083 0)
(11.484 0.969898 0)
(11.4303 0.93174 0)
(11.3718 0.894011 0)
(11.3092 0.856837 0)
(11.2435 0.820297 0)
(11.1755 0.784434 0)
(11.1057 0.749255 0)
(11.0349 0.714745 0)
(10.9635 0.680864 0)
(10.8921 0.647553 0)
(10.8212 0.614735 0)
(10.7511 0.582314 0)
(10.6824 0.550167 0)
(10.6154 0.518152 0)
(10.5511 0.486058 0)
(10.4881 0.453598 0)
(10.4345 0.421047 0)
(10.3579 0.381857 0)
(10.0034 0.0915147 0)
(10.0344 0.274797 0)
(10.0979 0.450073 0)
(10.1916 0.609078 0)
(10.3065 0.747617 0)
(10.4346 0.864753 0)
(10.5696 0.961119 0)
(10.7066 1.03811 0)
(10.841 1.09756 0)
(10.9695 1.14146 0)
(11.0893 1.17181 0)
(11.1986 1.1905 0)
(11.2962 1.19924 0)
(11.3812 1.19958 0)
(11.4534 1.19289 0)
(11.5129 1.18038 0)
(11.5601 1.1631 0)
(11.5954 1.14195 0)
(11.6195 1.11771 0)
(11.6332 1.09102 0)
(11.6373 1.06245 0)
(11.6328 1.03245 0)
(11.6204 1.00141 0)
(11.601 0.969625 0)
(11.5754 0.937349 0)
(11.5444 0.904773 0)
(11.5087 0.872043 0)
(11.4691 0.839264 0)
(11.426 0.806506 0)
(11.3802 0.773804 0)
(11.3322 0.741167 0)
(11.2826 0.708574 0)
(11.2318 0.675976 0)
(11.1803 0.643293 0)
(11.1286 0.610407 0)
(11.0771 0.577157 0)
(11.0267 0.543338 0)
(10.976 0.508464 0)
(10.933 0.473412 0)
(10.8671 0.428996 0)
(10.0026 0.0772438 0)
(10.0262 0.231789 0)
(10.0747 0.380821 0)
(10.1467 0.518441 0)
(10.2366 0.641165 0)
(10.3388 0.747748 0)
(10.4491 0.838228 0)
(10.5637 0.913356 0)
(10.6795 0.974298 0)
(10.7937 1.02243 0)
(10.9041 1.05917 0)
(11.0091 1.08587 0)
(11.1074 1.10382 0)
(11.1979 1.11416 0)
(11.28 1.11791 0)
(11.3533 1.11601 0)
(11.4176 1.10927 0)
(11.4729 1.0984 0)
(11.5193 1.08404 0)
(11.5572 1.06673 0)
(11.5868 1.04695 0)
(11.6087 1.02511 0)
(11.6232 1.00157 0)
(11.6308 0.976618 0)
(11.6322 0.950509 0)
(11.6278 0.923447 0)
(11.6182 0.895601 0)
(11.6039 0.8671 0)
(11.5853 0.83804 0)
(11.5631 0.808486 0)
(11.5377 0.778471 0)
(11.5094 0.747998 0)
(11.4789 0.717037 0)
(11.4465 0.685523 0)
(11.4127 0.653346 0)
(11.3777 0.620338 0)
(11.3425 0.586324 0)
(11.3055 0.550661 0)
(11.2743 0.51477 0)
(11.2215 0.467603 0)
(10.0021 0.0661967 0)
(10.0206 0.198565 0)
(10.0585 0.326974 0)
(10.1153 0.447118 0)
(10.1869 0.556165 0)
(10.2696 0.652799 0)
(10.3602 0.736712 0)
(10.4559 0.808225 0)
(10.5543 0.868064 0)
(10.6533 0.917187 0)
(10.7513 0.956637 0)
(10.8469 0.987453 0)
(10.9389 1.01061 0)
(11.0264 1.02702 0)
(11.1088 1.03749 0)
(11.1855 1.04275 0)
(11.2562 1.04343 0)
(11.3205 1.04012 0)
(11.3783 1.03331 0)
(11.4297 1.02344 0)
(11.4746 1.0109 0)
(11.5132 0.99604 0)
(11.5456 0.97915 0)
(11.5722 0.960488 0)
(11.5931 0.940275 0)
(11.6087 0.918699 0)
(11.6192 0.895915 0)
(11.6251 0.872049 0)
(11.6267 0.847197 0)
(11.6242 0.821429 0)
(11.6182 0.794785 0)
(11.6088 0.767276 0)
(11.5965 0.73888 0)
(11.5815 0.709539 0)
(11.5643 0.679155 0)
(11.545 0.647559 0)
(11.5244 0.614618 0)
(11.5011 0.579599 0)
(11.4814 0.544298 0)
(11.4425 0.496771 0)
(10.0017 0.0574364 0)
(10.0165 0.172254 0)
(10.0468 0.284142 0)
(10.0925 0.389884 0)
(10.1507 0.487197 0)
(10.2185 0.574829 0)
(10.2937 0.652284 0)
(10.374 0.719596 0)
(10.4577 0.777174 0)
(10.5431 0.825665 0)
(10.6288 0.865834 0)
(10.7138 0.898484 0)
(10.7971 0.924397 0)
(10.8779 0.944304 0)
(10.9558 0.958876 0)
(11.0301 0.96871 0)
(11.1004 0.97434 0)
(11.1665 0.976235 0)
(11.2282 0.974808 0)
(11.2852 0.970422 0)
(11.3375 0.963395 0)
(11.385 0.954006 0)
(11.4278 0.942497 0)
(11.4658 0.92908 0)
(11.4992 0.913938 0)
(11.5281 0.897228 0)
(11.5527 0.879078 0)
(11.573 0.859597 0)
(11.5894 0.838868 0)
(11.6019 0.816949 0)
(11.6109 0.793874 0)
(11.6165 0.769653 0)
(11.6189 0.744263 0)
(11.6185 0.717652 0)
(11.6153 0.68973 0)
(11.6095 0.660336 0)
(11.6017 0.629377 0)
(11.5906 0.596108 0)
(11.5812 0.562495 0)
(11.5555 0.516612 0)
(10.0014 0.0503511 0)
(10.0135 0.150991 0)
(10.0382 0.24941 0)
(10.0756 0.343158 0)
(10.1235 0.430395 0)
(10.1799 0.509992 0)
(10.243 0.581373 0)
(10.3111 0.644392 0)
(10.3827 0.699231 0)
(10.4565 0.746298 0)
(10.5313 0.786139 0)
(10.6063 0.819364 0)
(10.6807 0.846597 0)
(10.7538 0.868438 0)
(10.8252 0.88545 0)
(10.8944 0.898143 0)
(10.9611 0.906974 0)
(11.0251 0.912349 0)
(11.086 0.914621 0)
(11.1437 0.914102 0)
(11.1981 0.911061 0)
(11.249 0.905733 0)
(11.2963 0.898322 0)
(11.3401 0.889002 0)
(11.3803 0.877923 0)
(11.4168 0.865213 0)
(11.4499 0.850976 0)
(11.4794 0.835299 0)
(11.5055 0.818246 0)
(11.5283 0.799862 0)
(11.5478 0.780171 0)
(11.5642 0.759175 0)
(11.5775 0.73685 0)
(11.5879 0.713145 0)
(11.5956 0.687982 0)
(11.6004 0.661216 0)
(11.6028 0.632787 0)
(11.6017 0.602002 0)
(11.6007 0.570815 0)
(11.5864 0.528037 0)
(10.0011 0.0445244 0)
(10.0112 0.133513 0)
(10.0317 0.220784 0)
(10.0627 0.304437 0)
(10.1028 0.382985 0)
(10.1503 0.455438 0)
(10.2038 0.521208 0)
(10.262 0.580047 0)
(10.3237 0.631979 0)
(10.3878 0.677237 0)
(10.4534 0.71619 0)
(10.5195 0.749291 0)
(10.5857 0.777023 0)
(10.6514 0.799878 0)
(10.716 0.818324 0)
(10.7794 0.8328 0)
(10.8412 0.843705 0)
(10.9011 0.851396 0)
(10.959 0.856188 0)
(11.0146 0.858356 0)
(11.0679 0.85814 0)
(11.1187 0.855749 0)
(11.1669 0.851358 0)
(11.2124 0.845119 0)
(11.2552 0.837161 0)
(11.2953 0.827589 0)
(11.3326 0.81649 0)
(11.367 0.803933 0)
(11.3987 0.789969 0)
(11.4276 0.77463 0)
(11.4536 0.757931 0)
(11.477 0.73987 0)
(11.4976 0.720421 0)
(11.5154 0.699538 0)
(11.5306 0.677155 0)
(11.543 0.653149 0)
(11.5529 0.627488 0)
(11.5592 0.599578 0)
(11.5646 0.571229 0)
(11.5594 0.532448 0)
(10.001 0.0396639 0)
(10.0094 0.118937 0)
(10.0266 0.196859 0)
(10.0528 0.271931 0)
(10.0866 0.342946 0)
(10.127 0.409049 0)
(10.1728 0.469677 0)
(10.2231 0.524533 0)
(10.2767 0.57354 0)
(10.3327 0.616803 0)
(10.3904 0.654557 0)
(10.4491 0.687122 0)
(10.5081 0.714869 0)
(10.567 0.738184 0)
(10.6254 0.757457 0)
(10.683 0.773058 0)
(10.7396 0.785334 0)
(10.7949 0.7946 0)
(10.8488 0.801139 0)
(10.9011 0.805201 0)
(10.9517 0.807005 0)
(11.0005 0.806739 0)
(11.0473 0.804566 0)
(11.0923 0.800623 0)
(11.1351 0.795025 0)
(11.1758 0.787866 0)
(11.2144 0.779222 0)
(11.2508 0.769152 0)
(11.2849 0.757698 0)
(11.3167 0.744887 0)
(11.3462 0.73073 0)
(11.3733 0.715222 0)
(11.3981 0.698342 0)
(11.4204 0.68005 0)
(11.4403 0.660296 0)
(11.4575 0.638986 0)
(11.4723 0.616109 0)
(11.4838 0.591191 0)
(11.4935 0.56583 0)
(11.495 0.531435 0)
(10.0008 0.0355583 0)
(10.008 0.106627 0)
(10.0226 0.176616 0)
(10.0449 0.244329 0)
(10.0738 0.308778 0)
(10.1085 0.369228 0)
(10.1481 0.425163 0)
(10.1918 0.476267 0)
(10.2387 0.522405 0)
(10.288 0.563595 0)
(10.3391 0.599969 0)
(10.3913 0.631745 0)
(10.4441 0.659196 0)
(10.497 0.682622 0)
(10.5499 0.702337 0)
(10.6022 0.718649 0)
(10.6539 0.731855 0)
(10.7047 0.74223 0)
(10.7544 0.750026 0)
(10.803 0.755471 0)
(10.8503 0.758764 0)
(10.8963 0.760081 0)
(10.9407 0.759572 0)
(10.9837 0.757367 0)
(11.0251 0.753574 0)
(11.0648 0.748281 0)
(11.1029 0.741559 0)
(11.1391 0.733464 0)
(11.1736 0.724035 0)
(11.2062 0.713297 0)
(11.2368 0.701263 0)
(11.2655 0.687932 0)
(11.2921 0.673289 0)
(11.3166 0.657308 0)
(11.3389 0.639954 0)
(11.3588 0.621164 0)
(11.3763 0.600947 0)
(11.3909 0.578951 0)
(11.4033 0.556537 0)
(11.4094 0.526537 0)
(10.0007 0.0320522 0)
(10.0068 0.0961144 0)
(10.0194 0.159304 0)
(10.0386 0.220652 0)
(10.0635 0.279344 0)
(10.0936 0.334752 0)
(10.1281 0.386411 0)
(10.1663 0.434008 0)
(10.2076 0.477377 0)
(10.2513 0.516477 0)
(10.2967 0.551368 0)
(10.3434 0.58219 0)
(10.3909 0.609135 0)
(10.4387 0.632431 0)
(10.4866 0.652326 0)
(10.5343 0.669071 0)
(10.5815 0.682916 0)
(10.6281 0.694096 0)
(10.6739 0.702834 0)
(10.7188 0.709333 0)
(10.7628 0.713775 0)
(10.8056 0.716321 0)
(10.8473 0.717114 0)
(10.8878 0.716275 0)
(10.927 0.713908 0)
(10.9649 0.7101 0)
(11.0014 0.704919 0)
(11.0364 0.698421 0)
(11.0699 0.690647 0)
(11.1019 0.681627 0)
(11.1323 0.671376 0)
(11.161 0.659901 0)
(11.1879 0.647198 0)
(11.2129 0.633254 0)
(11.236 0.618054 0)
(11.2569 0.601565 0)
(11.2756 0.583814 0)
(11.2917 0.564559 0)
(11.3055 0.544935 0)
(11.3143 0.519085 0)
(10.0006 0.0290282 0)
(10.0059 0.087048 0)
(10.0168 0.144354 0)
(10.0334 0.200154 0)
(10.0552 0.253772 0)
(10.0814 0.30467 0)
(10.1117 0.352435 0)
(10.1454 0.396769 0)
(10.1819 0.437492 0)
(10.2208 0.474528 0)
(10.2615 0.507885 0)
(10.3034 0.537643 0)
(10.3463 0.563935 0)
(10.3896 0.586927 0)
(10.4332 0.606811 0)
(10.4767 0.623788 0)
(10.52 0.638064 0)
(10.5628 0.649838 0)
(10.6051 0.659303 0)
(10.6466 0.666636 0)
(10.6873 0.672002 0)
(10.7271 0.675548 0)
(10.766 0.677407 0)
(10.8039 0.677692 0)
(10.8406 0.676504 0)
(10.8763 0.673926 0)
(10.9108 0.670028 0)
(10.9441 0.664868 0)
(10.976 0.658491 0)
(11.0067 0.650928 0)
(11.0359 0.642206 0)
(11.0637 0.632338 0)
(11.0899 0.621333 0)
(11.1144 0.609193 0)
(11.1372 0.595922 0)
(11.1581 0.581514 0)
(11.1769 0.566013 0)
(11.1934 0.549268 0)
(11.2076 0.532214 0)
(11.2179 0.510136 0)
(10.0005 0.0263967 0)
(10.0052 0.0791585 0)
(10.0147 0.131331 0)
(10.0292 0.18226 0)
(10.0483 0.23138 0)
(10.0714 0.278232 0)
(10.0981 0.322449 0)
(10.128 0.363756 0)
(10.1606 0.40197 0)
(10.1953 0.436993 0)
(10.2319 0.4688 0)
(10.2697 0.497429 0)
(10.3086 0.522962 0)
(10.348 0.54552 0)
(10.3878 0.565248 0)
(10.4277 0.582303 0)
(10.4674 0.596852 0)
(10.5069 0.609061 0)
(10.5459 0.619094 0)
(10.5843 0.627104 0)
(10.6221 0.633238 0)
(10.6591 0.637628 0)
(10.6953 0.640393 0)
(10.7307 0.641643 0)
(10.765 0.64147 0)
(10.7984 0.639958 0)
(10.8308 0.637175 0)
(10.8621 0.633181 0)
(10.8922 0.628023 0)
(10.9212 0.621742 0)
(10.9489 0.614367 0)
(10.9752 0.605924 0)
(11.0002 0.596434 0)
(11.0237 0.585912 0)
(11.0456 0.57438 0)
(11.0657 0.561854 0)
(11.084 0.548393 0)
(11.1002 0.533918 0)
(11.1143 0.519194 0)
(11.125 0.500459 0)
(10.0005 0.024088 0)
(10.0046 0.0722365 0)
(10.013 0.119895 0)
(10.0258 0.166518 0)
(10.0426 0.21163 0)
(10.0631 0.254839 0)
(10.0868 0.29582 0)
(10.1135 0.334323 0)
(10.1426 0.370169 0)
(10.1739 0.40325 0)
(10.2069 0.433518 0)
(10.2412 0.46098 0)
(10.2765 0.485684 0)
(10.3125 0.507712 0)
(10.349 0.52717 0)
(10.3856 0.544181 0)
(10.4223 0.558877 0)
(10.4587 0.571394 0)
(10.4948 0.58187 0)
(10.5305 0.590436 0)
(10.5656 0.597219 0)
(10.6001 0.602336 0)
(10.6338 0.605897 0)
(10.6668 0.607999 0)
(10.6989 0.608732 0)
(10.7301 0.608174 0)
(10.7604 0.606394 0)
(10.7897 0.603451 0)
(10.818 0.599397 0)
(10.8451 0.594276 0)
(10.8711 0.588125 0)
(10.896 0.580978 0)
(10.9195 0.572866 0)
(10.9416 0.563819 0)
(10.9623 0.55387 0)
(10.9814 0.543057 0)
(10.9988 0.531447 0)
(11.0144 0.519015 0)
(11.0279 0.506388 0)
(11.0386 0.490578 0)
(10.0004 0.0220469 0)
(10.0041 0.066117 0)
(10.0115 0.109776 0)
(10.0229 0.152568 0)
(10.0379 0.194091 0)
(10.0561 0.234006 0)
(10.0774 0.272031 0)
(10.1013 0.307938 0)
(10.1275 0.341557 0)
(10.1558 0.372777 0)
(10.1856 0.401536 0)
(10.2169 0.427819 0)
(10.2491 0.451648 0)
(10.2821 0.473076 0)
(10.3156 0.492178 0)
(10.3494 0.509047 0)
(10.3832 0.523787 0)
(10.417 0.536509 0)
(10.4505 0.547324 0)
(10.4837 0.556346 0)
(10.5164 0.563682 0)
(10.5485 0.569435 0)
(10.58 0.573702 0)
(10.6108 0.576574 0)
(10.6409 0.578131 0)
(10.6701 0.578448 0)
(10.6984 0.577591 0)
(10.7259 0.57562 0)
(10.7523 0.572589 0)
(10.7778 0.568544 0)
(10.8021 0.563529 0)
(10.8254 0.557585 0)
(10.8474 0.550751 0)
(10.8682 0.543067 0)
(10.8876 0.534577 0)
(10.9055 0.525333 0)
(10.9219 0.51541 0)
(10.9366 0.50482 0)
(10.9495 0.494075 0)
(10.9596 0.480813 0)
(10.0004 0.0202294 0)
(10.0036 0.0606675 0)
(10.0103 0.10076 0)
(10.0205 0.140122 0)
(10.0339 0.178412 0)
(10.0503 0.21534 0)
(10.0694 0.250657 0)
(10.0909 0.284159 0)
(10.1147 0.315688 0)
(10.1403 0.345134 0)
(10.1675 0.372426 0)
(10.196 0.397535 0)
(10.2256 0.420465 0)
(10.2559 0.441244 0)
(10.2868 0.459925 0)
(10.318 0.476576 0)
(10.3493 0.491277 0)
(10.3807 0.504117 0)
(10.4119 0.515186 0)
(10.4428 0.524578 0)
(10.4734 0.532385 0)
(10.5034 0.538696 0)
(10.5329 0.543597 0)
(10.5617 0.547168 0)
(10.5899 0.549483 0)
(10.6173 0.550612 0)
(10.6438 0.550619 0)
(10.6695 0.54956 0)
(10.6943 0.547491 0)
(10.7182 0.544461 0)
(10.741 0.540517 0)
(10.7627 0.535704 0)
(10.7833 0.530069 0)
(10.8027 0.523659 0)
(10.8209 0.516527 0)
(10.8377 0.508732 0)
(10.853 0.500354 0)
(10.8668 0.49143 0)
(10.879 0.48238 0)
(10.8886 0.471341 0)
(10.0003 0.0185996 0)
(10.0033 0.055781 0)
(10.0092 0.0926703 0)
(10.0184 0.128942 0)
(10.0305 0.164306 0)
(10.0453 0.198512 0)
(10.0626 0.231343 0)
(10.0822 0.262616 0)
(10.1038 0.292185 0)
(10.1271 0.319944 0)
(10.152 0.345821 0)
(10.1782 0.369775 0)
(10.2053 0.391796 0)
(10.2333 0.411897 0)
(10.2618 0.43011 0)
(10.2908 0.446484 0)
(10.3199 0.46108 0)
(10.3491 0.473965 0)
(10.3782 0.485215 0)
(10.4071 0.494905 0)
(10.4357 0.503113 0)
(10.4638 0.509915 0)
(10.4914 0.515385 0)
(10.5185 0.519595 0)
(10.5449 0.522612 0)
(10.5707 0.524499 0)
(10.5956 0.525317 0)
(10.6197 0.52512 0)
(10.643 0.523964 0)
(10.6654 0.521897 0)
(10.6868 0.518969 0)
(10.7071 0.51523 0)
(10.7264 0.510728 0)
(10.7446 0.505517 0)
(10.7616 0.499654 0)
(10.7773 0.493205 0)
(10.7916 0.48625 0)
(10.8046 0.478843 0)
(10.8161 0.471325 0)
(10.825 0.462241 0)
(10.0003 0.0171282 0)
(10.003 0.0513693 0)
(10.0084 0.0853631 0)
(10.0167 0.118834 0)
(10.0277 0.151535 0)
(10.0411 0.18325 0)
(10.0569 0.21379 0)
(10.0747 0.242993 0)
(10.0944 0.270726 0)
(10.1158 0.296887 0)
(10.1387 0.321403 0)
(10.1628 0.34423 0)
(10.1879 0.365346 0)
(10.2137 0.384752 0)
(10.2402 0.402465 0)
(10.2671 0.418519 0)
(10.2942 0.432957 0)
(10.3215 0.445831 0)
(10.3487 0.4572 0)
(10.3758 0.467127 0)
(10.4026 0.475675 0)
(10.429 0.482908 0)
(10.455 0.488891 0)
(10.4804 0.493686 0)
(10.5053 0.497353 0)
(10.5295 0.499949 0)
(10.553 0.501531 0)
(10.5757 0.502151 0)
(10.5976 0.501862 0)
(10.6186 0.500712 0)
(10.6387 0.498753 0)
(10.6578 0.496033 0)
(10.6759 0.492607 0)
(10.693 0.488528 0)
(10.7089 0.483858 0)
(10.7236 0.478664 0)
(10.7371 0.473025 0)
(10.7492 0.467004 0)
(10.7601 0.46088 0)
(10.7684 0.453531 0)
(10.0003 0.0157906 0)
(10.0027 0.0473588 0)
(10.0076 0.0787178 0)
(10.0152 0.109634 0)
(10.0253 0.139898 0)
(10.0376 0.169324 0)
(10.052 0.197747 0)
(10.0683 0.225023 0)
(10.0865 0.251032 0)
(10.1062 0.27568 0)
(10.1273 0.298894 0)
(10.1496 0.320628 0)
(10.1728 0.340852 0)
(10.1968 0.359559 0)
(10.2215 0.376753 0)
(10.2465 0.392455 0)
(10.2719 0.406696 0)
(10.2974 0.419513 0)
(10.3229 0.430953 0)
(10.3483 0.441065 0)
(10.3735 0.4499 0)
(10.3984 0.457513 0)
(10.4228 0.463958 0)
(10.4468 0.469289 0)
(10.4702 0.473558 0)
(10.4931 0.476819 0)
(10.5152 0.479121 0)
(10.5366 0.480515 0)
(10.5573 0.481049 0)
(10.5771 0.480773 0)
(10.596 0.479735 0)
(10.6141 0.477986 0)
(10.6311 0.47558 0)
(10.6471 0.472572 0)
(10.6621 0.469024 0)
(10.676 0.465002 0)
(10.6887 0.460585 0)
(10.7001 0.455839 0)
(10.7105 0.45099 0)
(10.7182 0.445195 0)
(10.0003 0.0145661 0)
(10.0025 0.0436874 0)
(10.007 0.0726325 0)
(10.014 0.101205 0)
(10.0232 0.129225 0)
(10.0345 0.156536 0)
(10.0478 0.182994 0)
(10.0629 0.208472 0)
(10.0797 0.232863 0)
(10.098 0.256079 0)
(10.1175 0.27805 0)
(10.1382 0.298729 0)
(10.1598 0.318082 0)
(10.1822 0.336092 0)
(10.2052 0.352758 0)
(10.2287 0.368089 0)
(10.2525 0.382104 0)
(10.2764 0.39483 0)
(10.3004 0.406301 0)
(10.3243 0.416555 0)
(10.348 0.425635 0)
(10.3714 0.433583 0)
(10.3945 0.440445 0)
(10.4172 0.446268 0)
(10.4393 0.451098 0)
(10.4609 0.45498 0)
(10.4818 0.457961 0)
(10.5021 0.460087 0)
(10.5216 0.461403 0)
(10.5403 0.461957 0)
(10.5582 0.461796 0)
(10.5752 0.46097 0)
(10.5913 0.459531 0)
(10.6064 0.457534 0)
(10.6206 0.455041 0)
(10.6337 0.452117 0)
(10.6457 0.448836 0)
(10.6565 0.445266 0)
(10.6664 0.441589 0)
(10.6736 0.437202 0)
(10.0002 0.0134369 0)
(10.0023 0.0403016 0)
(10.0065 0.0670193 0)
(10.013 0.0934252 0)
(10.0215 0.119369 0)
(10.032 0.144716 0)
(10.0443 0.169343 0)
(10.0584 0.193138 0)
(10.074 0.216006 0)
(10.0909 0.237866 0)
(10.1092 0.258653 0)
(10.1285 0.278317 0)
(10.1487 0.296823 0)
(10.1697 0.31415 0)
(10.1913 0.330287 0)
(10.2133 0.345236 0)
(10.2356 0.359006 0)
(10.2582 0.371616 0)
(10.2807 0.383088 0)
(10.3033 0.393451 0)
(10.3257 0.402738 0)
(10.3479 0.410984 0)
(10.3697 0.418226 0)
(10.3911 0.424502 0)
(10.4121 0.429853 0)
(10.4325 0.434318 0)
(10.4523 0.437939 0)
(10.4715 0.440757 0)
(10.49 0.442816 0)
(10.5077 0.444158 0)
(10.5247 0.44483 0)
(10.5408 0.444879 0)
(10.556 0.444356 0)
(10.5703 0.443315 0)
(10.5837 0.441814 0)
(10.5961 0.439918 0)
(10.6075 0.437695 0)
(10.6178 0.435214 0)
(10.6273 0.432618 0)
(10.634 0.429514 0)
(10.0002 0.0123874 0)
(10.0021 0.0371547 0)
(10.0061 0.0618012 0)
(10.0121 0.0861911 0)
(10.0201 0.110199 0)
(10.0299 0.133713 0)
(10.0414 0.156625 0)
(10.0545 0.17884 0)
(10.0691 0.200273 0)
(10.085 0.220849 0)
(10.1021 0.240507 0)
(10.1203 0.259199 0)
(10.1392 0.276888 0)
(10.159 0.293547 0)
(10.1793 0.309162 0)
(10.2 0.323726 0)
(10.2211 0.337241 0)
(10.2424 0.349717 0)
(10.2638 0.361168 0)
(10.2851 0.371615 0)
(10.3063 0.381082 0)
(10.3273 0.389594 0)
(10.348 0.397183 0)
(10.3683 0.40388 0)
(10.3882 0.409717 0)
(10.4076 0.414731 0)
(10.4264 0.418956 0)
(10.4446 0.42243 0)
(10.4621 0.425192 0)
(10.479 0.427283 0)
(10.495 0.428745 0)
(10.5103 0.429624 0)
(10.5248 0.429967 0)
(10.5384 0.429826 0)
(10.5511 0.429259 0)
(10.5629 0.428324 0)
(10.5738 0.427087 0)
(10.5836 0.425616 0)
(10.5927 0.424022 0)
(10.599 0.422094 0)
(10.0002 0.0114035 0)
(10.002 0.0342046 0)
(10.0057 0.0569093 0)
(10.0114 0.0794084 0)
(10.0189 0.1016 0)
(10.0281 0.123391 0)
(10.039 0.144691 0)
(10.0514 0.165416 0)
(10.0651 0.185492 0)
(10.0801 0.204851 0)
(10.0962 0.223436 0)
(10.1133 0.241198 0)
(10.1313 0.258101 0)
(10.1499 0.274114 0)
(10.1691 0.289218 0)
(10.1888 0.303401 0)
(10.2088 0.316659 0)
(10.2289 0.328992 0)
(10.2492 0.340409 0)
(10.2694 0.350922 0)
(10.2895 0.360546 0)
(10.3095 0.369302 0)
(10.3291 0.377211 0)
(10.3484 0.3843 0)
(10.3673 0.390595 0)
(10.3858 0.396126 0)
(10.4037 0.400923 0)
(10.421 0.40502 0)
(10.4376 0.40845 0)
(10.4536 0.411251 0)
(10.4689 0.413463 0)
(10.4835 0.415127 0)
(10.4972 0.416289 0)
(10.5102 0.416997 0)
(10.5223 0.417306 0)
(10.5335 0.417271 0)
(10.5439 0.416954 0)
(10.5533 0.416421 0)
(10.5621 0.415754 0)
(10.5681 0.414909 0)
(10.0002 0.0104722 0)
(10.0019 0.0314125 0)
(10.0054 0.0522798 0)
(10.0108 0.0729906 0)
(10.018 0.093465 0)
(10.0268 0.113627 0)
(10.0371 0.133401 0)
(10.0488 0.152717 0)
(10.0619 0.171508 0)
(10.0761 0.189712 0)
(10.0914 0.207275 0)
(10.1077 0.224152 0)
(10.1247 0.240302 0)
(10.1424 0.255695 0)
(10.1607 0.270306 0)
(10.1794 0.284119 0)
(10.1984 0.297122 0)
(10.2175 0.309311 0)
(10.2368 0.320686 0)
(10.2561 0.331253 0)
(10.2752 0.341021 0)
(10.2942 0.350002 0)
(10.3129 0.358213 0)
(10.3313 0.365672 0)
(10.3493 0.372401 0)
(10.3669 0.378422 0)
(10.3839 0.383763 0)
(10.4004 0.388451 0)
(10.4163 0.392517 0)
(10.4315 0.395994 0)
(10.4461 0.398916 0)
(10.4599 0.401325 0)
(10.473 0.40326 0)
(10.4854 0.404769 0)
(10.4969 0.4059 0)
(10.5077 0.406707 0)
(10.5176 0.407247 0)
(10.5267 0.407586 0)
(10.5351 0.407778 0)
(10.5408 0.407932 0)
(10.0002 0.00958132 0)
(10.0018 0.0287414 0)
(10.0052 0.0478523 0)
(10.0104 0.0668557 0)
(10.0173 0.0856928 0)
(10.0257 0.104304 0)
(10.0356 0.122628 0)
(10.0469 0.140605 0)
(10.0594 0.158175 0)
(10.073 0.175282 0)
(10.0877 0.191875 0)
(10.1032 0.207909 0)
(10.1195 0.223344 0)
(10.1364 0.238145 0)
(10.1539 0.252286 0)
(10.1717 0.265744 0)
(10.1898 0.278502 0)
(10.2081 0.290552 0)
(10.2265 0.301886 0)
(10.2449 0.312504 0)
(10.2632 0.322407 0)
(10.2813 0.331603 0)
(10.2992 0.340101 0)
(10.3168 0.347913 0)
(10.3339 0.355056 0)
(10.3507 0.361547 0)
(10.3669 0.367408 0)
(10.3826 0.372661 0)
(10.3978 0.377333 0)
(10.4123 0.381452 0)
(10.4262 0.385051 0)
(10.4394 0.388165 0)
(10.4519 0.390831 0)
(10.4637 0.393093 0)
(10.4748 0.394996 0)
(10.485 0.396591 0)
(10.4946 0.39793 0)
(10.5033 0.399076 0)
(10.5114 0.400065 0)
(10.5169 0.401138 0)
(10.0002 0.00871832 0)
(10.0018 0.0261541 0)
(10.0051 0.0435663 0)
(10.0102 0.0609228 0)
(10.0168 0.0781856 0)
(10.025 0.0953105 0)
(10.0346 0.112249 0)
(10.0455 0.128948 0)
(10.0576 0.145356 0)
(10.0708 0.161421 0)
(10.0849 0.177095 0)
(10.0998 0.192331 0)
(10.1155 0.207089 0)
(10.1318 0.221332 0)
(10.1485 0.235029 0)
(10.1656 0.248154 0)
(10.183 0.260685 0)
(10.2006 0.272606 0)
(10.2182 0.283906 0)
(10.2358 0.294576 0)
(10.2533 0.304614 0)
(10.2707 0.31402 0)
(10.2878 0.322796 0)
(10.3045 0.330951 0)
(10.321 0.338494 0)
(10.337 0.345438 0)
(10.3525 0.351798 0)
(10.3675 0.357593 0)
(10.3819 0.362846 0)
(10.3958 0.367579 0)
(10.4091 0.371822 0)
(10.4217 0.375605 0)
(10.4336 0.378963 0)
(10.4449 0.381934 0)
(10.4554 0.384561 0)
(10.4653 0.386891 0)
(10.4745 0.388972 0)
(10.4828 0.390866 0)
(10.4908 0.392589 0)
(10.4959 0.394507 0)
(10.0002 0.00786986 0)
(10.0018 0.0236109 0)
(10.0051 0.0393579 0)
(10.0101 0.0551077 0)
(10.0167 0.0708428 0)
(10.0247 0.0865331 0)
(10.0341 0.10214 0)
(10.0448 0.117618 0)
(10.0566 0.13292 0)
(10.0694 0.147998 0)
(10.0831 0.162802 0)
(10.0976 0.177288 0)
(10.1128 0.191411 0)
(10.1285 0.205133 0)
(10.1447 0.218419 0)
(10.1612 0.231238 0)
(10.1779 0.243564 0)
(10.1948 0.255375 0)
(10.2118 0.266653 0)
(10.2287 0.277385 0)
(10.2455 0.287563 0)
(10.2621 0.297179 0)
(10.2785 0.306232 0)
(10.2946 0.314723 0)
(10.3103 0.322657 0)
(10.3256 0.33004 0)
(10.3404 0.336885 0)
(10.3547 0.343203 0)
(10.3685 0.349014 0)
(10.3818 0.354335 0)
(10.3944 0.359192 0)
(10.4065 0.363611 0)
(10.4179 0.367623 0)
(10.4287 0.371263 0)
(10.4388 0.374568 0)
(10.4482 0.377582 0)
(10.457 0.380352 0)
(10.4651 0.382936 0)
(10.4728 0.385333 0)
(10.4778 0.388019 0)
(10.0002 0.00702091 0)
(10.0018 0.0210663 0)
(10.0051 0.0351551 0)
(10.0101 0.0493177 0)
(10.0168 0.0635565 0)
(10.0248 0.077853 0)
(10.0341 0.092176 0)
(10.0447 0.106486 0)
(10.0563 0.120737 0)
(10.0689 0.134881 0)
(10.0823 0.14887 0)
(10.0965 0.162655 0)
(10.1112 0.176191 0)
(10.1265 0.189436 0)
(10.1422 0.202349 0)
(10.1582 0.214895 0)
(10.1744 0.227044 0)
(10.1907 0.238768 0)
(10.207 0.250044 0)
(10.2233 0.260853 0)
(10.2395 0.271179 0)
(10.2554 0.281012 0)
(10.2712 0.290344 0)
(10.2866 0.29917 0)
(10.3016 0.307489 0)
(10.3163 0.315304 0)
(10.3305 0.322619 0)
(10.3442 0.329446 0)
(10.3574 0.335794 0)
(10.37 0.341681 0)
(10.3821 0.347125 0)
(10.3936 0.35215 0)
(10.4045 0.356781 0)
(10.4148 0.361049 0)
(10.4245 0.364989 0)
(10.4336 0.36864 0)
(10.4421 0.372045 0)
(10.4498 0.375262 0)
(10.4573 0.378275 0)
(10.4621 0.381654 0)