/*--------------------------------*- C++ -*----------------------------------*\
| =========                 |                                                 |
| \\      /  F ield         | OpenFOAM: The Open Source CFD Toolbox           |
|  \\    /   O peration     | Version:  v1906                                 |
|   \\  /    A nd           | Web:      www.OpenFOAM.com                      |
|    \\/     M anipulation  |                                                 |
\*---------------------------------------------------------------------------*/
FoamFile
{
    version     2.0;
    format      ascii;
    class       volScalarField;
    location    "0.5";
    object      p;
}
// * * * * * * * * * * * * * * * * * * * * * * * * * * * * * * * * * * * * * //

dimensions      [0 2 -2 0 0 0 0];


internalField   nonuniform List<scalar> 
4800
(
-8.66383e-11
0.000157859
0.000117855
0.000130133
1.54754e-05
0.000166393
0.000172469
0.000384448
0.000456653
0.00053582
0.00057416
0.0006529
0.000695366
0.000622052
0.000679676
0.000906771
0.00129139
0.00179778
0.00239794
0.0030626
9.57177e-06
0.000141521
0.000119731
0.000119684
3.95731e-05
0.000163076
0.000202393
0.000377377
0.000465245
0.00052519
0.000581743
0.000653159
0.000703085
0.000624172
0.000683643
0.000901875
0.0012895
0.00173378
0.00216759
0.00266792
1.42156e-05
0.000137682
0.000120135
0.000119086
4.21684e-05
0.000162388
0.000214213
0.000375591
0.000468773
0.00052259
0.000584646
0.00065741
0.000708241
0.000629377
0.000684224
0.000887868
0.00122071
0.00159841
0.00196309
0.00238778
2.52824e-05
0.000125529
0.000121084
0.000114803
5.46948e-05
0.000162919
0.00022679
0.000378151
0.000465469
0.000528232
0.000580845
0.000666224
0.00071206
0.000632938
0.000678219
0.000866393
0.00114272
0.00145548
0.00177044
0.00214082
2.91361e-05
0.000118978
0.000121221
0.000113068
6.20641e-05
0.000165555
0.000236219
0.000385667
0.000462076
0.000534767
0.000583525
0.000671393
0.000721273
0.000631933
0.00065857
0.000812394
0.00103323
0.00130854
0.00158249
0.0019002
3.62309e-05
0.000108617
0.000119994
0.000115221
6.81723e-05
0.000171199
0.000243856
0.000394338
0.000460134
0.000536001
0.00059475
0.000675063
0.00072543
0.0006227
0.000616901
0.00073721
0.000918729
0.00116436
0.00139921
0.00166715
4.11514e-05
0.000103952
0.000117748
0.000116544
7.23594e-05
0.000177562
0.000252838
0.000399384
0.000468563
0.000533898
0.000605368
0.000681454
0.000721033
0.000601418
0.000556418
0.000651101
0.000803402
0.0010148
0.0012132
0.00143864
4.52564e-05
0.000100108
0.000113876
0.000118448
7.6592e-05
0.000182245
0.000266618
0.000399309
0.000477206
0.000537962
0.000610932
0.000688521
0.000706892
0.000561856
0.000484494
0.000559819
0.000686865
0.00085821
0.00102399
0.00121583
4.75224e-05
9.88364e-05
0.000109606
0.00011968
8.3316e-05
0.000183878
0.00028334
0.000401181
0.000480906
0.000551102
0.000613731
0.00068176
0.000682226
0.000512677
0.000404411
0.000463368
0.000567789
0.000696821
0.000831824
0.000997199
4.78528e-05
9.97943e-05
0.000106416
0.00011828
9.35351e-05
0.000183587
0.000298188
0.00041211
0.00047931
0.000560207
0.000620817
0.000659303
0.000641382
0.000458114
0.000321564
0.000359813
0.000444641
0.000533835
0.000636377
0.000780839
4.61633e-05
0.00010177
0.000106689
0.000113934
0.000105866
0.000185828
0.000307294
0.00043065
0.000481283
0.000558626
0.000626041
0.000634576
0.000584083
0.000395951
0.000236338
0.000248232
0.000315505
0.000371602
0.000439919
0.000565848
4.31098e-05
0.000102852
0.000111704
0.000108165
0.000114862
0.000194106
0.000311705
0.000445377
0.000493818
0.00054653
0.000613508
0.000606754
0.000525081
0.000326982
0.000148001
0.000130906
0.000178994
0.000207912
0.000243505
0.000350458
3.96812e-05
0.000101288
0.000121178
9.9547e-05
0.00011544
0.000207446
0.000318481
0.000450192
0.000509108
0.000539375
0.000581383
0.000565796
0.00046464
0.000255077
5.66538e-05
1.07258e-05
3.73654e-05
4.05248e-05
4.71883e-05
0.000135126
3.73879e-05
9.61217e-05
0.000131668
0.000103458
0.000108258
0.000218745
0.000331617
0.000442962
0.000510486
0.000537246
0.000548999
0.000510984
0.000396031
0.000179186
-3.7308e-05
-0.000113752
-0.00010871
-0.000128507
-0.000147835
-7.79651e-05
3.63666e-05
8.73883e-05
0.000138519
0.000119025
0.000101097
0.000219035
0.000349937
0.000440299
0.000494631
0.000523721
0.000520197
0.000456012
0.000319135
9.62583e-05
-0.000133824
-0.000242312
-0.000260024
-0.000297055
-0.000339693
-0.000288643
3.64961e-05
7.76152e-05
0.000138811
0.000141238
0.000104089
0.000204031
0.000361582
0.000447173
0.000469974
0.000491248
0.000487497
0.000405629
0.000241975
5.76022e-06
-0.000235536
-0.000372149
-0.000414534
-0.000465704
-0.000527229
-0.00049622
3.66694e-05
6.99246e-05
0.000131351
0.000162539
0.000122848
0.000184885
0.0003523
0.000456623
0.000452467
0.000442831
0.000440167
0.000355532
0.000168244
-8.77126e-05
-0.000343076
-0.000503948
-0.000569693
-0.000634948
-0.000710694
-0.000696625
3.56932e-05
6.53714e-05
0.00011865
0.000174551
0.000159158
0.000178134
0.000317542
0.000442746
0.000442614
0.00040031
0.000378334
0.000295486
9.50569e-05
-0.000180769
-0.000453203
-0.000639487
-0.000725764
-0.000802104
-0.000889013
-0.000886731
3.30958e-05
6.33762e-05
0.000108593
0.000173629
0.000191705
0.000189368
0.000274404
0.000397326
0.000419802
0.00036793
0.000319385
0.000226851
1.85623e-05
-0.000274849
-0.000564404
-0.000776102
-0.000884319
-0.000966771
-0.00106058
-0.00106751
2.8678e-05
6.20892e-05
0.000103334
0.000159762
0.000210326
0.000221026
0.000248273
0.000324281
0.000364881
0.000332236
0.000270025
0.000161445
-5.89752e-05
-0.000369595
-0.000676609
-0.000910076
-0.00104382
-0.00113341
-0.0012268
-0.00123999
2.35693e-05
5.95844e-05
0.000102136
0.000144096
0.000207814
0.000247274
0.000247477
0.000256359
0.000274342
0.000268546
0.00022257
0.000104954
-0.000129772
-0.000459287
-0.000787019
-0.00104149
-0.00119936
-0.00130233
-0.00139216
-0.00140483
1.85427e-05
5.42061e-05
0.000102561
0.00013161
0.000184915
0.0002536
0.000260688
0.000209575
0.000173339
0.000169647
0.000153201
5.13103e-05
-0.000190411
-0.00053765
-0.000888212
-0.00116762
-0.00134748
-0.00146575
-0.00155759
-0.00156615
1.41295e-05
4.59978e-05
9.9479e-05
0.000122886
0.00015483
0.000234672
0.000264017
0.000185709
8.67654e-05
5.09273e-05
5.23566e-05
-1.83826e-05
-0.00024594
-0.000603864
-0.000974457
-0.00127739
-0.00148408
-0.00161738
-0.001715
-0.00172533
9.66241e-06
3.57825e-05
9.12164e-05
0.000115764
0.000123745
0.000190869
0.000245827
0.000170154
2.21368e-05
-6.38488e-05
-7.29228e-05
-0.000115213
-0.000311594
-0.000663063
-0.00104608
-0.00136662
-0.00159913
-0.00175089
-0.00185479
-0.00187335
4.54937e-06
2.38544e-05
7.64733e-05
0.000105936
9.43809e-05
0.00013617
0.000201721
0.000145839
-2.55468e-05
-0.000164827
-0.000203193
-0.000234962
-0.00039636
-0.000724847
-0.00111096
-0.00143939
-0.00168733
-0.00185716
-0.00196867
-0.00199916
-2.25955e-06
1.1117e-05
5.53408e-05
8.84986e-05
6.59123e-05
7.59616e-05
0.000136545
0.000104185
-6.87235e-05
-0.000249593
-0.000328627
-0.000363887
-0.000498292
-0.000795242
-0.0011734
-0.00150733
-0.00175478
-0.00193205
-0.00205164
-0.00209134
-1.16379e-05
-4.17729e-06
2.98202e-05
6.32553e-05
3.50769e-05
1.47907e-05
5.61313e-05
4.30147e-05
-0.000115637
-0.000323009
-0.000444785
-0.000495442
-0.000608048
-0.000872259
-0.00123446
-0.00157224
-0.00181863
-0.00198636
-0.0021026
-0.00214621
-2.43108e-05
-2.14799e-05
-1.35004e-06
2.88284e-05
-1.49925e-08
-4.65339e-05
-3.28172e-05
-3.70881e-05
-0.000171139
-0.000387296
-0.000549748
-0.000626314
-0.000723406
-0.000950676
-0.00129063
-0.00162884
-0.00187978
-0.00203838
-0.00213549
-0.00216855
-4.17232e-05
-4.21554e-05
-3.64009e-05
-1.50718e-05
-4.18443e-05
-0.000107259
-0.00012616
-0.000132416
-0.000240194
-0.000448114
-0.000639705
-0.00075074
-0.000844255
-0.00103142
-0.00133809
-0.00167112
-0.00193005
-0.00208902
-0.00216789
-0.00217847
-6.42741e-05
-6.73509e-05
-7.47202e-05
-6.73121e-05
-9.28824e-05
-0.000167919
-0.000219037
-0.000238729
-0.000324271
-0.000512397
-0.000716993
-0.000859993
-0.000965761
-0.00112008
-0.00137978
-0.00169558
-0.00196138
-0.00212808
-0.00219957
-0.00219004
-9.27242e-05
-9.7778e-05
-0.000116256
-0.00012635
-0.000153963
-0.000231101
-0.000307055
-0.000350683
-0.000423688
-0.000584132
-0.000787657
-0.000952403
-0.00107603
-0.00121622
-0.00142536
-0.00170532
-0.00196894
-0.00214388
-0.00221976
-0.00220131
-0.000127056
-0.000134933
-0.000161139
-0.000188744
-0.000224209
-0.000299824
-0.000390989
-0.000459582
-0.000533508
-0.000668238
-0.000856157
-0.00103215
-0.00116975
-0.00130756
-0.00148071
-0.00170942
-0.0019536
-0.00213176
-0.0022153
-0.00220075
-0.000166627
-0.0001784
-0.000210857
-0.00025265
-0.000300312
-0.000376001
-0.000473547
-0.000561879
-0.000645741
-0.000764201
-0.000928992
-0.00110298
-0.00124852
-0.00138466
-0.00153699
-0.00171852
-0.00192413
-0.00209445
-0.00218308
-0.00217985
-0.000211341
-0.000227429
-0.000265471
-0.000317951
-0.000378269
-0.000457526
-0.000557297
-0.000658049
-0.000753382
-0.000865196
-0.00100919
-0.00117005
-0.00131544
-0.00144609
-0.00158287
-0.00173065
-0.00189208
-0.00203969
-0.00212835
-0.00213846
-0.000260271
-0.000280649
-0.000324158
-0.000384575
-0.000455656
-0.000540886
-0.000642253
-0.00074932
-0.000853548
-0.000964729
-0.00109365
-0.0012371
-0.00137402
-0.00149511
-0.00161487
-0.00173699
-0.00186089
-0.00197906
-0.00206059
-0.00208184
-0.000312187
-0.000336241
-0.000384941
-0.000451731
-0.000530896
-0.000622546
-0.000726263
-0.000836294
-0.000945399
-0.00105685
-0.0011763
-0.00130388
-0.00142838
-0.00153774
-0.00163773
-0.00173568
-0.00182985
-0.00191841
-0.00198637
-0.00201542
-0.000365023
-0.000392161
-0.000445187
-0.000517313
-0.000602539
-0.000699634
-0.000806071
-0.000917774
-0.00102849
-0.00113849
-0.00125038
-0.00136477
-0.00147691
-0.00157814
-0.00166552
-0.00174373
-0.00181186
-0.0018693
-0.00191402
-0.0019388
-0.000415887
-0.000445482
-0.000501821
-0.000578288
-0.000668084
-0.000769021
-0.000877941
-0.000990953
-0.00110237
-0.00121049
-0.00131519
-0.00141608
-0.00151103
-0.00159696
-0.00167222
-0.00174052
-0.00180313
-0.00185861
-0.00190482
-0.00193698
-0.000461938
-0.000492952
-0.000551022
-0.000629995
-0.00072273
-0.000825904
-0.000936075
-0.00104981
-0.00116175
-0.00126916
-0.00137059
-0.00146541
-0.00155142
-0.00162636
-0.00168797
-0.00173737
-0.00177777
-0.00181157
-0.0018413
-0.00186906
-0.000502929
-0.000537784
-0.000599355
-0.000681841
-0.000778566
-0.000885237
-0.000997703
-0.00111286
-0.00122562
-0.00133258
-0.00143124
-0.00152072
-0.00159919
-0.00166517
-0.00171737
-0.00175674
-0.00178648
-0.00181064
-0.00183359
-0.00185984
0.00386871
0.00402664
0.00378744
0.00352253
0.00331963
0.00311997
0.00285238
0.00250556
0.00210771
0.00169176
0.00128992
0.000909625
0.000538367
0.000172221
-0.000186169
-0.000550233
-0.000955337
-0.00139687
-0.0018664
-0.0023955
-0.00298751
-0.0036332
-0.00434554
-0.00514435
-0.00597014
-0.00670384
-0.00729244
-0.00768702
-0.00784817
-0.00778767
-0.00753769
-0.00719867
-0.00685873
-0.00653814
-0.00627895
-0.00611648
-0.0060529
-0.00601793
-0.00593797
-0.00590859
-0.00598534
-0.00606474
-0.00615838
-0.00625481
-0.00624506
-0.00628701
-0.0064965
-0.00664228
-0.00663482
-0.00664492
-0.00676068
-0.00690149
-0.00693504
-0.00692876
-0.00701967
-0.00711536
-0.00714795
-0.0072027
-0.00726751
-0.00731117
-0.00736441
-0.00739516
-0.00741335
-0.00746859
-0.00750773
-0.00751027
-0.00754955
-0.00761065
-0.00762585
-0.00763428
-0.0076803
-0.00772634
-0.00774787
-0.00777256
-0.00781463
-0.00785536
-0.00789228
-0.00793107
-0.00797378
-0.00801804
-0.00806089
-0.00810793
-0.00815415
-0.00820372
-0.00825356
-0.00830448
-0.00835871
-0.00841232
-0.00846951
-0.0085278
-0.00858625
-0.00864892
-0.00870982
-0.0087734
-0.00883836
-0.00890144
-0.00896454
-0.00903008
-0.00907612
-0.00911707
0.00324903
0.00364592
0.00367825
0.00350252
0.00329953
0.00308665
0.00281593
0.00247322
0.00208012
0.00166717
0.00126646
0.000887012
0.000516126
0.000149029
-0.000209727
-0.000572088
-0.000975309
-0.00141635
-0.00188339
-0.00240727
-0.0029944
-0.00363632
-0.00434082
-0.00512593
-0.00594037
-0.00666443
-0.00724762
-0.00764705
-0.00781703
-0.00776467
-0.00752097
-0.00718572
-0.00684805
-0.00652958
-0.00627186
-0.00611026
-0.00604774
-0.00601326
-0.00593293
-0.00590465
-0.00598232
-0.00606063
-0.00615458
-0.0062525
-0.00624223
-0.0062836
-0.00649428
-0.00664031
-0.00663233
-0.00664244
-0.00675908
-0.00690041
-0.00693391
-0.00692721
-0.00701866
-0.00711462
-0.00714704
-0.00720201
-0.00726711
-0.00731078
-0.00736415
-0.00739489
-0.00741303
-0.00746849
-0.0075077
-0.00751006
-0.00754946
-0.00761077
-0.00762588
-0.0076342
-0.00768033
-0.00772643
-0.00774789
-0.00777255
-0.00781466
-0.00785539
-0.00789229
-0.00793108
-0.00797379
-0.00801805
-0.00806088
-0.00810794
-0.00815416
-0.00820372
-0.00825356
-0.00830448
-0.00835871
-0.00841231
-0.00846951
-0.0085278
-0.00858625
-0.00864892
-0.00870982
-0.0087734
-0.00883837
-0.00890144
-0.00896453
-0.00903011
-0.00907617
-0.00911709
0.00292353
0.0034209
0.00362221
0.00353656
0.00333584
0.0030961
0.00280481
0.00245393
0.00205834
0.00164371
0.00124078
0.000859514
0.000487361
0.000117067
-0.000244583
-0.000605326
-0.00100357
-0.00144292
-0.00190819
-0.00242415
-0.00300265
-0.00363853
-0.00433101
-0.00509084
-0.00587587
-0.00657538
-0.00714193
-0.00753756
-0.00772137
-0.00769323
-0.00747334
-0.00715676
-0.00683069
-0.00651987
-0.00626918
-0.00611068
-0.00604757
-0.00601344
-0.00593521
-0.00590727
-0.00598418
-0.00606124
-0.00615337
-0.00625151
-0.00624302
-0.00628392
-0.0064921
-0.00663668
-0.00662972
-0.00664088
-0.00675672
-0.00689728
-0.00693115
-0.00692505
-0.00701682
-0.00711268
-0.00714493
-0.00720004
-0.00726516
-0.00730877
-0.00736246
-0.00739355
-0.00741176
-0.0074674
-0.00750683
-0.00750924
-0.00754866
-0.00761008
-0.00762531
-0.00763377
-0.00767999
-0.00772613
-0.00774766
-0.00777241
-0.00781458
-0.0078553
-0.00789223
-0.00793104
-0.00797377
-0.00801803
-0.00806088
-0.00810795
-0.00815417
-0.00820374
-0.00825358
-0.0083045
-0.00835874
-0.00841233
-0.00846953
-0.00852781
-0.00858626
-0.00864893
-0.00870983
-0.0087734
-0.00883838
-0.00890145
-0.00896456
-0.00903016
-0.00907644
-0.00911732
0.00263392
0.00316913
0.00347931
0.00349037
0.00332471
0.00308072
0.00277557
0.00241615
0.00201701
0.00160165
0.0011986
0.000818073
0.000446971
7.45503e-05
-0.000288361
-0.000645952
-0.00103758
-0.00147542
-0.00194073
-0.00244597
-0.00301282
-0.00363995
-0.0043158
-0.00504594
-0.00579468
-0.00646713
-0.00701593
-0.00740647
-0.00760571
-0.00760439
-0.00741308
-0.00712011
-0.00680843
-0.00650823
-0.00626574
-0.00610915
-0.00604399
-0.00600964
-0.00593337
-0.00590692
-0.0059849
-0.00606039
-0.00614738
-0.00624488
-0.00624216
-0.00628451
-0.00648693
-0.00662796
-0.00662362
-0.00663735
-0.00675146
-0.00688994
-0.00692537
-0.00692135
-0.00701264
-0.00710781
-0.00714063
-0.00719605
-0.00726109
-0.00730492
-0.00735899
-0.00739043
-0.00740893
-0.00746478
-0.00750465
-0.00750755
-0.007547
-0.00760838
-0.007624
-0.00763285
-0.00767907
-0.0077252
-0.00774698
-0.00777197
-0.0078142
-0.00785494
-0.00789193
-0.00793081
-0.00797357
-0.00801786
-0.00806074
-0.00810785
-0.00815409
-0.00820369
-0.00825355
-0.00830448
-0.00835874
-0.00841234
-0.00846955
-0.00852784
-0.00858629
-0.00864896
-0.00870986
-0.00877343
-0.00883841
-0.00890148
-0.00896462
-0.00903024
-0.00907694
-0.00911778
0.00235779
0.00290688
0.00330109
0.0034099
0.00329865
0.00306634
0.00275743
0.00239073
0.0019846
0.00156398
0.00115684
0.000775681
0.00040553
3.1596e-05
-0.000332187
-0.000688167
-0.00107379
-0.00150882
-0.00197392
-0.00246711
-0.00301905
-0.00363462
-0.00429175
-0.00498965
-0.00570109
-0.00634788
-0.00688173
-0.00726707
-0.00747897
-0.00750398
-0.00734324
-0.00707658
-0.00678253
-0.00649512
-0.00626063
-0.00610545
-0.00603785
-0.00600292
-0.0059301
-0.00590669
-0.00598579
-0.00605924
-0.00613966
-0.00623636
-0.006242
-0.00628643
-0.00648065
-0.00661696
-0.00661633
-0.00663373
-0.00674518
-0.00688023
-0.00691792
-0.00691667
-0.00700677
-0.00710123
-0.00713512
-0.00719063
-0.00725526
-0.00729912
-0.00735339
-0.00738559
-0.00740477
-0.00746071
-0.00750118
-0.00750492
-0.00754424
-0.0076054
-0.00762173
-0.00763125
-0.00767737
-0.00772348
-0.00774572
-0.00777111
-0.00781341
-0.00785419
-0.00789131
-0.0079303
-0.00797313
-0.00801748
-0.00806044
-0.00810761
-0.0081539
-0.00820354
-0.00825346
-0.00830443
-0.00835872
-0.00841235
-0.00846958
-0.00852788
-0.00858634
-0.008649
-0.00870992
-0.00877347
-0.00883848
-0.00890153
-0.00896474
-0.00903035
-0.00907759
-0.00911845
0.00209233
0.00264693
0.0031098
0.00330823
0.00325847
0.00304936
0.00274509
0.00237348
0.00195731
0.00152647
0.00111146
0.000727421
0.000358967
-1.45458e-05
-0.00037838
-0.000732908
-0.00111269
-0.00154118
-0.00200399
-0.00248607
-0.00302121
-0.00362338
-0.00426203
-0.00492975
-0.00560434
-0.00622515
-0.00674636
-0.00712601
-0.00734727
-0.00739712
-0.00726726
-0.00702878
-0.00675468
-0.00648122
-0.00625553
-0.00610164
-0.00603059
-0.0059952
-0.00592691
-0.00590665
-0.00598617
-0.00605725
-0.00613146
-0.00622827
-0.00624264
-0.00628813
-0.00647299
-0.00660468
-0.00660856
-0.00662979
-0.00673795
-0.00686917
-0.00690947
-0.00691132
-0.00699998
-0.00709355
-0.00712857
-0.00718412
-0.00724833
-0.00729231
-0.00734694
-0.00738009
-0.0073999
-0.00745572
-0.00749687
-0.00750164
-0.00754077
-0.00760169
-0.00761898
-0.00762929
-0.00767524
-0.0077213
-0.00774411
-0.00776995
-0.00781233
-0.00785316
-0.00789045
-0.00792959
-0.00797251
-0.00801695
-0.00805999
-0.00810725
-0.0081536
-0.00820331
-0.00825329
-0.00830431
-0.00835866
-0.00841232
-0.00846959
-0.0085279
-0.00858639
-0.00864905
-0.00871
-0.00877353
-0.00883856
-0.00890159
-0.00896489
-0.00903049
-0.00907831
-0.00911926
0.00183534
0.00239458
0.0029116
0.00318732
0.00320073
0.0030222
0.00272771
0.0023574
0.00193253
0.00148915
0.00106412
0.000674898
0.000308008
-6.38032e-05
-0.000426573
-0.000779281
-0.00115332
-0.00157357
-0.00203306
-0.00250523
-0.00302337
-0.00360942
-0.00422858
-0.00486857
-0.00550625
-0.0060995
-0.00660942
-0.0069842
-0.0072128
-0.00728429
-0.00718497
-0.00697674
-0.00672371
-0.00646563
-0.00625024
-0.00609732
-0.00602205
-0.00598642
-0.00592304
-0.00590568
-0.00598519
-0.00605478
-0.00612398
-0.00622035
-0.00624235
-0.00628853
-0.00646436
-0.00659196
-0.0066003
-0.00662504
-0.00672994
-0.00685727
-0.00690018
-0.00690537
-0.00699252
-0.00708503
-0.00712136
-0.0071771
-0.00724085
-0.00728494
-0.00733991
-0.00737398
-0.00739446
-0.00745024
-0.00749215
-0.00749799
-0.0075369
-0.00759757
-0.0076159
-0.00762705
-0.00767281
-0.00771885
-0.0077423
-0.00776863
-0.00781108
-0.00785196
-0.00788946
-0.00792876
-0.00797177
-0.00801631
-0.00805947
-0.00810681
-0.00815325
-0.00820302
-0.00825308
-0.00830416
-0.00835858
-0.00841228
-0.00846959
-0.00852792
-0.00858645
-0.0086491
-0.00871009
-0.0087736
-0.00883867
-0.00890167
-0.00896508
-0.00903066
-0.00907904
-0.00912015
0.00158743
0.00215013
0.00270771
0.00304786
0.00312436
0.00298264
0.00270186
0.00233868
0.00191068
0.00145469
0.00101746
0.000620066
0.000251507
-0.00011818
-0.000479257
-0.000829028
-0.0011961
-0.00160829
-0.00206292
-0.00252441
-0.00302404
-0.00359071
-0.00418988
-0.00480448
-0.00540741
-0.00597237
-0.00647104
-0.00684305
-0.00707665
-0.00716487
-0.00709469
-0.00691821
-0.0066882
-0.00644731
-0.00624359
-0.0060925
-0.00601298
-0.0059764
-0.00591788
-0.00590343
-0.00598313
-0.00605246
-0.00611652
-0.00621081
-0.0062404
-0.00628842
-0.00645563
-0.00657878
-0.00659115
-0.00661951
-0.00672135
-0.00684457
-0.0068901
-0.00689893
-0.00698453
-0.00707593
-0.00711372
-0.0071696
-0.00723273
-0.00727693
-0.00733231
-0.00736743
-0.00738869
-0.00744442
-0.00748705
-0.00749399
-0.00753268
-0.00759312
-0.00761255
-0.00762461
-0.00767018
-0.00771621
-0.00774033
-0.00776717
-0.0078097
-0.00785065
-0.00788836
-0.00792784
-0.00797096
-0.0080156
-0.00805888
-0.00810633
-0.00815285
-0.0082027
-0.00825285
-0.00830399
-0.00835849
-0.00841223
-0.00846959
-0.00852793
-0.00858651
-0.00864914
-0.00871019
-0.00877366
-0.00883879
-0.00890172
-0.00896529
-0.00903085
-0.00907977
-0.00912111
0.00134629
0.00191017
0.00249848
0.00289422
0.00303229
0.00293164
0.00266736
0.00231276
0.00188878
0.00142257
0.000970636
0.000562069
0.00018886
-0.000178397
-0.000537001
-0.000881091
-0.0012396
-0.0016438
-0.00209146
-0.00254169
-0.00302111
-0.0035671
-0.00414812
-0.00473934
-0.00530889
-0.00584441
-0.00633046
-0.00670035
-0.00693785
-0.0070391
-0.00699532
-0.00685238
-0.00664909
-0.00642643
-0.00623501
-0.00608725
-0.00600366
-0.00596477
-0.00591062
-0.00590005
-0.00598063
-0.00604931
-0.00610748
-0.00619979
-0.00623822
-0.00628898
-0.00644672
-0.00656438
-0.00658101
-0.00661352
-0.00671222
-0.00683106
-0.00687936
-0.00689211
-0.00697612
-0.00706625
-0.00710546
-0.00716146
-0.00722402
-0.00726842
-0.00732428
-0.00736049
-0.00738252
-0.00743811
-0.00748151
-0.00748967
-0.00752816
-0.00758835
-0.00760895
-0.00762197
-0.00766733
-0.00771336
-0.00773819
-0.00776558
-0.00780819
-0.00784922
-0.00788716
-0.00792683
-0.00797008
-0.00801484
-0.00805825
-0.0081058
-0.00815242
-0.00820234
-0.00825259
-0.0083038
-0.00835838
-0.00841216
-0.00846958
-0.00852793
-0.00858657
-0.00864919
-0.0087103
-0.00877373
-0.00883893
-0.00890181
-0.00896552
-0.00903108
-0.00908049
-0.00912213
0.00111079
0.0016738
0.00228777
0.00273107
0.00292596
0.00286741
0.00262186
0.00227587
0.00186136
0.00139157
0.000923344
0.000502022
0.000123664
-0.000242118
-0.000597662
-0.000934699
-0.00128385
-0.0016796
-0.00211834
-0.00255751
-0.00301686
-0.00354043
-0.00410474
-0.00467325
-0.00520782
-0.00571417
-0.00618764
-0.00655546
-0.00679838
-0.00691042
-0.00688798
-0.00677881
-0.0066053
-0.00640202
-0.00622352
-0.00608054
-0.00599401
-0.00595209
-0.0059017
-0.00589607
-0.00597724
-0.00604412
-0.00609715
-0.00618884
-0.00623673
-0.00628963
-0.00643648
-0.00654834
-0.00657013
-0.00660736
-0.00670278
-0.00681684
-0.0068679
-0.00688486
-0.00696716
-0.00705568
-0.00709643
-0.00715285
-0.00721485
-0.00725935
-0.0073157
-0.00735306
-0.00737587
-0.00743133
-0.00747558
-0.00748503
-0.00752327
-0.0075832
-0.00760506
-0.0076191
-0.00766426
-0.00771028
-0.00773588
-0.00776384
-0.00780655
-0.00784767
-0.00788587
-0.00792575
-0.00796912
-0.00801401
-0.00805757
-0.00810522
-0.00815195
-0.00820195
-0.00825231
-0.00830359
-0.00835826
-0.00841208
-0.00846957
-0.00852793
-0.00858664
-0.00864924
-0.00871042
-0.00877382
-0.00883909
-0.00890191
-0.00896576
-0.00903134
-0.00908118
-0.00912319
0.000880793
0.00144095
0.00207734
0.00256064
0.00280492
0.00278816
0.0025645
0.00222753
0.00182471
0.00136024
0.000877757
0.000441488
5.73946e-05
-0.000307839
-0.000660595
-0.000991935
-0.00133121
-0.00171618
-0.00214328
-0.00257132
-0.0030117
-0.00351097
-0.00405768
-0.00460404
-0.00510478
-0.00558364
-0.00604494
-0.00641032
-0.00665863
-0.00677914
-0.00677268
-0.00669508
-0.00655447
-0.00637401
-0.00620991
-0.00607261
-0.00598382
-0.00593913
-0.00589237
-0.0058909
-0.00597154
-0.0060372
-0.00608668
-0.00617796
-0.00623456
-0.006289
-0.00642502
-0.00653165
-0.00655897
-0.00660104
-0.00669301
-0.00680163
-0.0068552
-0.00687685
-0.00695752
-0.00704432
-0.00708689
-0.00714387
-0.00720509
-0.00724959
-0.00730651
-0.00734507
-0.00736867
-0.00742402
-0.00746917
-0.00747998
-0.00751801
-0.00757771
-0.00760092
-0.007616
-0.00766093
-0.00770696
-0.00773338
-0.00776195
-0.00780476
-0.00784599
-0.00788447
-0.00792457
-0.00796808
-0.0080131
-0.00805681
-0.00810459
-0.00815144
-0.00820153
-0.00825201
-0.00830336
-0.00835813
-0.00841199
-0.00846956
-0.00852792
-0.00858671
-0.00864929
-0.00871055
-0.0087739
-0.00883925
-0.00890202
-0.00896601
-0.00903163
-0.00908187
-0.00912429
0.000655867
0.00121305
0.00186821
0.00238544
0.00266974
0.00269401
0.00249551
0.00216863
0.00177747
0.00132482
0.000834744
0.000380293
-1.16791e-05
-0.000375386
-0.000725576
-0.0010529
-0.00138193
-0.00175124
-0.00216549
-0.00258316
-0.00300478
-0.00348089
-0.00400673
-0.00453093
-0.00500402
-0.00545449
-0.00590112
-0.00626429
-0.00651619
-0.00664453
-0.00665211
-0.00660262
-0.0064964
-0.00634267
-0.00619475
-0.00606274
-0.00597151
-0.00592561
-0.005883
-0.00588379
-0.00596328
-0.00602934
-0.00607592
-0.00616563
-0.00623066
-0.00628798
-0.00641403
-0.00651484
-0.00654667
-0.00659345
-0.00668233
-0.00678532
-0.00684136
-0.00686831
-0.0069477
-0.00703252
-0.00707667
-0.00713409
-0.00719448
-0.00723904
-0.00729661
-0.00733651
-0.00736102
-0.00741628
-0.00746237
-0.00747458
-0.00751238
-0.00757183
-0.00759643
-0.00761261
-0.00765731
-0.00770339
-0.00773069
-0.0077599
-0.00780282
-0.00784417
-0.00788295
-0.00792328
-0.00796695
-0.00801211
-0.008056
-0.00810391
-0.00815089
-0.00820107
-0.00825167
-0.0083031
-0.00835798
-0.00841189
-0.00846954
-0.00852791
-0.00858679
-0.00864934
-0.00871069
-0.008774
-0.00883942
-0.00890216
-0.00896626
-0.00903196
-0.00908254
-0.00912542
0.000435281
0.000991654
0.00166017
0.00220529
0.00252168
0.00258523
0.00241569
0.00210022
0.00171866
0.00127995
0.000791576
0.000318737
-8.44509e-05
-0.000444851
-0.000790699
-0.00111405
-0.00143398
-0.00178511
-0.00218696
-0.00259542
-0.00299588
-0.00344986
-0.00395244
-0.00445382
-0.00490628
-0.00532686
-0.00575393
-0.00611728
-0.00637313
-0.00650798
-0.00652894
-0.0065037
-0.00642953
-0.00630497
-0.00617667
-0.00605064
-0.00595699
-0.0059109
-0.00587321
-0.00587605
-0.0059536
-0.00601982
-0.00606387
-0.00615159
-0.00622564
-0.00628749
-0.00640307
-0.0064964
-0.0065324
-0.00658457
-0.00667128
-0.00676896
-0.00682707
-0.00685916
-0.0069372
-0.00701963
-0.0070652
-0.00712342
-0.0071833
-0.00722793
-0.00728619
-0.00732755
-0.00735295
-0.00740796
-0.00745495
-0.00746867
-0.00750628
-0.00756552
-0.00759162
-0.00760897
-0.00765344
-0.00769957
-0.00772781
-0.00775768
-0.00780071
-0.00784219
-0.0078813
-0.00792188
-0.00796573
-0.00801104
-0.00805512
-0.00810316
-0.00815028
-0.00820055
-0.0082513
-0.00830281
-0.00835781
-0.00841176
-0.00846952
-0.0085279
-0.00858687
-0.0086494
-0.00871083
-0.00877411
-0.00883959
-0.00890232
-0.0089665
-0.00903232
-0.0090832
-0.00912657
0.000217593
0.000776085
0.00145324
0.00202053
0.00236526
0.00246386
0.00232557
0.00202194
0.00164675
0.00122222
0.000744613
0.000259114
-0.000159254
-0.000516127
-0.000855127
-0.0011736
-0.00148679
-0.00182187
-0.00220822
-0.00260699
-0.00298511
-0.00341474
-0.00389588
-0.00437551
-0.00480975
-0.00520112
-0.00560492
-0.00597038
-0.00623213
-0.00636981
-0.00640171
-0.00639874
-0.0063535
-0.00625875
-0.00615456
-0.0060375
-0.00594087
-0.00589358
-0.00586242
-0.00586958
-0.00594326
-0.00600699
-0.00604945
-0.00613648
-0.00621955
-0.00628617
-0.0063911
-0.0064769
-0.00651769
-0.00657541
-0.00665983
-0.00675198
-0.00681146
-0.00684833
-0.00692538
-0.00700591
-0.00705332
-0.00711253
-0.00717169
-0.00721613
-0.007275
-0.00731784
-0.00734412
-0.00739892
-0.00744701
-0.0074624
-0.00749983
-0.00755882
-0.00758649
-0.00760504
-0.00764927
-0.00769545
-0.00772468
-0.00775523
-0.00779839
-0.00784003
-0.00787951
-0.00792037
-0.00796439
-0.00800986
-0.00805415
-0.00810233
-0.00814963
-0.0082
-0.0082509
-0.00830249
-0.00835762
-0.00841163
-0.00846948
-0.00852788
-0.00858693
-0.00864946
-0.00871097
-0.00877424
-0.00883978
-0.00890251
-0.00896676
-0.00903272
-0.00908388
-0.00912773
9.67644e-07
0.000563414
0.00124869
0.00183395
0.00220335
0.00233018
0.00222157
0.00193267
0.00156268
0.00115091
0.000690477
0.000201715
-0.000233683
-0.000590543
-0.000921136
-0.00123228
-0.00153868
-0.00186051
-0.00222682
-0.00261516
-0.00297599
-0.00337738
-0.00383689
-0.00429878
-0.00471312
-0.00507621
-0.00545785
-0.00582353
-0.00609149
-0.00623061
-0.00626949
-0.00628815
-0.00627141
-0.00620426
-0.00612636
-0.00602312
-0.00592355
-0.00587355
-0.00585017
-0.00586359
-0.00593223
-0.00599087
-0.00603236
-0.00612049
-0.00621202
-0.0062834
-0.00637905
-0.00645769
-0.00650257
-0.0065649
-0.00664636
-0.00673317
-0.0067948
-0.00683711
-0.00691341
-0.00699198
-0.00704098
-0.00710067
-0.00715877
-0.00720314
-0.00726297
-0.00730758
-0.00733489
-0.00738949
-0.00743865
-0.00745567
-0.00749284
-0.0075516
-0.00758094
-0.00760076
-0.00764472
-0.00769099
-0.00772128
-0.00775257
-0.00779589
-0.0078377
-0.00787757
-0.00791871
-0.00796294
-0.0080086
-0.00805311
-0.00810145
-0.00814891
-0.00819938
-0.00825046
-0.00830214
-0.00835741
-0.00841147
-0.00846943
-0.00852786
-0.008587
-0.00864953
-0.0087111
-0.0087744
-0.00883994
-0.00890273
-0.00896702
-0.00903313
-0.00908455
-0.00912889
-0.000214632
0.000351619
0.00104666
0.00164708
0.00203594
0.0021846
0.00210204
0.00183327
0.00146978
0.00106626
0.000624625
0.000142488
-0.0003063
-0.000668335
-0.000989368
-0.00128935
-0.00158732
-0.00189724
-0.00224376
-0.00262067
-0.0029709
-0.00334279
-0.00377363
-0.00422119
-0.00461692
-0.00495163
-0.00531524
-0.00567722
-0.00594828
-0.00609309
-0.00613588
-0.00617077
-0.00618433
-0.00614322
-0.00608987
-0.0060047
-0.00590483
-0.00585127
-0.00583521
-0.00585626
-0.00592186
-0.00597425
-0.00601308
-0.00610228
-0.00620249
-0.00627941
-0.00636678
-0.00643777
-0.00648593
-0.00655288
-0.00663165
-0.00671369
-0.0067783
-0.00682612
-0.0069005
-0.00697613
-0.0070269
-0.00708778
-0.00714526
-0.00718977
-0.00725062
-0.00729693
-0.00732503
-0.00737922
-0.00742947
-0.00744831
-0.00748532
-0.0075439
-0.00757501
-0.00759613
-0.00763982
-0.00768622
-0.00771765
-0.00774971
-0.00779316
-0.00783517
-0.00787546
-0.00791693
-0.00796137
-0.00800722
-0.00805196
-0.00810046
-0.00814812
-0.00819872
-0.00824997
-0.00830176
-0.00835716
-0.00841131
-0.00846936
-0.00852784
-0.00858705
-0.00864962
-0.00871123
-0.00877457
-0.00884012
-0.00890297
-0.0089673
-0.00903357
-0.00908524
-0.00913004
-0.000425583
0.000141852
0.000846126
0.00145964
0.00186425
0.00202981
0.00196919
0.00172299
0.00136887
0.000968925
0.000542398
7.63852e-05
-0.000375997
-0.00074595
-0.00105834
-0.00134538
-0.00163383
-0.00193141
-0.00226043
-0.00262403
-0.00296617
-0.00331338
-0.00370857
-0.00413818
-0.00452216
-0.00483168
-0.0051769
-0.00553196
-0.00580221
-0.0059584
-0.00600517
-0.00604551
-0.00608951
-0.00607825
-0.00604503
-0.00597846
-0.00588425
-0.00582829
-0.00581799
-0.00584759
-0.00591232
-0.00595785
-0.00599115