/*--------------------------------*- C++ -*----------------------------------*\
| =========                 |                                                 |
| \\      /  F ield         | OpenFOAM: The Open Source CFD Toolbox           |
|  \\    /   O peration     | Version:  v1906                                 |
|   \\  /    A nd           | Web:      www.OpenFOAM.com                      |
|    \\/     M anipulation  |                                                 |
\*---------------------------------------------------------------------------*/
FoamFile
{
    version     2.0;
    format      ascii;
    class       surfaceScalarField;
    location    "0.5";
    object      phi;
}
// * * * * * * * * * * * * * * * * * * * * * * * * * * * * * * * * * * * * * //

dimensions      [0 3 -1 0 0 0 0];
oriented        oriented;


internalField   nonuniform List<scalar> 
9440
(
3.881e-06
-4.1057e-09
3.87529e-06
1.1973e-09
3.8806e-06
3.75472e-08
3.87674e-06
-1.73426e-09
3.87931e-06
-2.34579e-09
3.87289e-06
-4.34555e-08
3.87363e-06
-8.97524e-10
3.8708e-06
-7.43496e-09
3.87282e-06
2.38613e-08
3.87297e-06
1.66441e-09
3.87622e-06
3.23688e-08
3.87844e-06
5.46808e-09
3.88182e-06
3.57941e-08
3.88385e-06
-5.16203e-09
3.88528e-06
1.48214e-08
3.88572e-06
-1.10775e-08
3.88504e-06
2.08139e-09
3.87741e-06
-1.25691e-08
3.86312e-06
1.6033e-08
2.8722e-08
3.83966e-06
4.18292e-06
-1.16616e-09
4.18548e-06
-1.35961e-09
4.18415e-06
3.88694e-08
4.18694e-06
-4.51535e-09
4.18397e-06
6.20032e-10
4.18232e-06
-4.18097e-08
4.17989e-06
1.53395e-09
4.17888e-06
-6.41801e-09
4.18015e-06
2.25903e-08
4.17902e-06
2.78878e-09
4.18366e-06
2.77288e-08
4.18177e-06
7.3579e-09
4.18763e-06
2.99381e-08
4.18542e-06
-2.95329e-09
4.18962e-06
1.06256e-08
4.18671e-06
-8.16709e-09
4.18513e-06
3.65901e-09
4.17212e-06
4.38593e-10
4.16494e-06
2.32173e-08
3.62084e-08
4.15745e-06
4.51731e-06
1.58954e-09
4.51889e-06
-2.93853e-09
4.51882e-06
3.8939e-08
4.51958e-06
-5.28442e-09
4.51916e-06
1.04271e-09
4.51535e-06
-3.79992e-08
4.51647e-06
4.14193e-10
4.51173e-06
-1.67624e-09
4.51734e-06
1.69751e-08
4.51169e-06
8.43868e-09
4.52016e-06
1.92609e-08
4.51417e-06
1.33485e-08
4.52367e-06
2.04357e-08
4.51753e-06
3.18673e-09
4.52439e-06
3.77271e-09
4.51738e-06
-1.16223e-09
4.51859e-06
2.44986e-09
4.50581e-06
1.32209e-08
4.50105e-06
2.79775e-08
4.2393e-08
4.49486e-06
4.88017e-06
2.36995e-09
4.87934e-06
-2.1112e-09
4.88183e-06
3.64476e-08
4.87983e-06
-3.27834e-09
4.88206e-06
-1.19643e-09
4.876e-06
-3.1939e-08
4.87969e-06
-3.26884e-09
4.87351e-06
4.50095e-09
4.87988e-06
1.06049e-08
4.87452e-06
1.3796e-08
4.88081e-06
1.29706e-08
4.87867e-06
1.54935e-08
4.88401e-06
1.50924e-08
4.88359e-06
3.61275e-09
4.88434e-06
3.01431e-09
4.87898e-06
4.20206e-09
4.87209e-06
9.33697e-09
4.86523e-06
2.00835e-08
4.86115e-06
3.20568e-08
4.58643e-08
4.85768e-06
5.27061e-06
2.4075e-09
5.26861e-06
-1.13068e-10
5.2727e-06
3.23627e-08
5.26909e-06
3.2351e-10
5.27276e-06
-4.86216e-09
5.26546e-06
-2.46387e-08
5.26999e-06
-7.80159e-09
5.26434e-06
1.0149e-08
5.26947e-06
5.47834e-09
5.26696e-06
1.63084e-08
5.26958e-06
1.03522e-08
5.27229e-06
1.27816e-08
5.27339e-06
1.39861e-08
5.27367e-06
3.33415e-09
5.27103e-06
5.6594e-09
5.26529e-06
9.94306e-09
5.25929e-06
1.53365e-08
5.25368e-06
2.56905e-08
5.24983e-06
3.59079e-08
4.80241e-08
5.24767e-06
5.6917e-06
2.16779e-09
5.68877e-06
2.81513e-09
5.69404e-06
2.7091e-08
5.68965e-06
4.71649e-09
5.69358e-06
-8.79432e-09
5.68673e-06
-1.77891e-08
5.68963e-06
-1.07013e-08
5.68751e-06
1.22686e-08
5.68846e-06
4.52824e-09
5.69107e-06
1.36968e-08
5.68965e-06
1.17728e-08
5.69343e-06
9.00648e-09
5.6938e-06
1.36112e-08
5.69204e-06
5.09691e-09
5.68831e-06
9.38632e-09
5.68229e-06
1.59623e-08
5.67727e-06
2.03598e-08
5.673e-06
2.99665e-08
5.66954e-06
3.93677e-08
4.95632e-08
5.668e-06
6.14624e-06
1.79749e-09
6.14259e-06
6.46121e-09
6.14859e-06
2.10988e-08
6.14419e-06
9.10833e-09
6.14729e-06
-1.18888e-08
6.14236e-06
-1.28612e-08
6.14221e-06
-1.05506e-08
6.14442e-06
1.00639e-08
6.14174e-06
7.20485e-09
6.14557e-06
9.86217e-09
6.14535e-06
1.19969e-08
6.14642e-06
7.9392e-09
6.1469e-06
1.31252e-08
6.1428e-06
9.19835e-09
6.13852e-06
1.36645e-08
6.13375e-06
2.07377e-08
6.12926e-06
2.48455e-08
6.12587e-06
3.33572e-08
6.12292e-06
4.23178e-08
5.07728e-08
6.12171e-06
6.63699e-06
1.36823e-09
6.63298e-06
1.04703e-08
6.63878e-06
1.52977e-08
6.63563e-06
1.22563e-08
6.63653e-06
-1.27884e-08
6.63496e-06
-1.12887e-08
6.63167e-06
-7.25591e-09
6.63524e-06
6.48707e-09
6.63392e-06
8.52478e-09
6.63492e-06
8.8675e-09
6.63697e-06
9.94201e-09
6.63577e-06
9.13949e-09
6.63456e-06
1.43423e-08
6.63034e-06
1.34156e-08
6.62597e-06
1.80339e-08
6.62182e-06
2.48906e-08
6.61784e-06
2.88175e-08
6.61501e-06
3.61946e-08
6.61265e-06
4.46781e-08
5.18471e-08
6.61157e-06
7.16681e-06
9.85485e-10
7.16298e-06
1.42992e-08
7.16737e-06
1.09105e-08
7.16689e-06
1.27388e-08
7.16473e-06
-1.06278e-08
7.16601e-06
-1.25675e-08
7.16202e-06
-3.27121e-09
7.16374e-06
4.77261e-09
7.16552e-06
6.73905e-09
7.16408e-06
1.03059e-08
7.16537e-06
8.65632e-09
7.16465e-06
9.85785e-09
7.16114e-06
1.78505e-08
7.15682e-06
1.77354e-08
7.15322e-06
2.16327e-08
7.14945e-06
2.86673e-08
7.1458e-06
3.24632e-08
7.14332e-06
3.86787e-08
7.14153e-06
4.64695e-08
5.27777e-08
7.1406e-06
7.73882e-06
7.67387e-10
7.73584e-06
1.72766e-08
7.73767e-06
9.08889e-09
7.74061e-06
9.79697e-09
7.73615e-06
-6.16784e-09
7.7378e-06
-1.42163e-08
7.73597e-06
-1.44629e-09
7.73464e-06
6.10847e-09
7.73728e-06
4.09667e-09
7.73685e-06
1.07344e-08
7.7348e-06
1.07062e-08
7.73402e-06
1.06361e-08
7.73083e-06
2.10376e-08
7.72598e-06
2.25891e-08
7.72276e-06
2.48512e-08
7.71961e-06
3.18153e-08
7.71625e-06
3.58274e-08
7.714e-06
4.09316e-08
7.71266e-06
4.78122e-08
5.34847e-08
7.71195e-06
8.35642e-06
8.08254e-10
8.35499e-06
1.87026e-08
8.35393e-06
1.0153e-08
8.35903e-06
4.69845e-09
8.35473e-06
-1.86904e-09
8.35412e-06
-1.36055e-08
8.35517e-06
-2.4969e-09
8.35277e-06
8.51054e-09
8.35316e-06
3.70768e-09
8.35446e-06
9.43132e-09
8.35075e-06
1.44181e-08
8.34763e-06
1.375e-08
8.34573e-06
2.294e-08
8.3415e-06
2.68196e-08
8.33808e-06
2.82729e-08
8.33549e-06
3.44067e-08
8.33255e-06
3.87648e-08
8.33043e-06
4.30507e-08
8.32939e-06
4.88487e-08
5.38685e-08
8.32901e-06
9.02333e-06
1.12844e-09
9.02404e-06
1.79911e-08
9.02043e-06
1.37629e-08
9.02519e-06
-6.36062e-11
9.02397e-06
-6.46553e-10
9.01992e-06
-9.55485e-09
9.02203e-06
-4.60597e-09
9.02135e-06
9.1838e-09
9.0184e-06
6.6634e-09
9.01936e-06
8.46932e-09
9.01699e-06
1.67875e-08
9.01202e-06
1.87209e-08
9.00955e-06
2.54104e-08
9.00637e-06
2.99937e-08
9.00307e-06
3.15826e-08
9.00071e-06
3.6766e-08
8.99826e-06
4.1209e-08
8.99636e-06
4.49496e-08
8.9955e-06
4.97082e-08
5.39508e-08
8.99542e-06
9.74359e-06
1.6404e-09
9.74611e-06
1.54688e-08
9.74147e-06
1.8404e-08
9.74319e-06
-1.78353e-09
9.74602e-06
-3.47899e-09
9.74072e-06
-4.25117e-09
9.74073e-06
-4.61777e-09
9.74231e-06
7.60912e-09
9.73839e-06
1.05833e-08
9.73603e-06
1.0829e-08
9.73489e-06
1.79209e-08
9.73062e-06
2.29963e-08
9.72727e-06
2.87621e-08
9.72444e-06
3.28212e-08
9.7215e-06
3.45192e-08
9.71933e-06
3.89384e-08
9.71727e-06
4.32719e-08
9.71566e-06
4.65547e-08
9.71496e-06
5.04071e-08
5.3814e-08
9.7151e-06
1.05216e-05
2.16498e-09
1.05247e-05
1.23045e-08
1.05213e-05
2.18454e-08
1.05187e-05
7.48203e-10
1.05236e-05
-8.34734e-09
1.05207e-05
-1.37509e-09
1.0517e-05
-9.1041e-10
1.05188e-05
5.85471e-09
1.05166e-05
1.27714e-08
1.05115e-05
1.59332e-08
1.05089e-05
2.05451e-08
1.05063e-05
2.55328e-08
1.05032e-05
3.19167e-08
1.05002e-05
3.57714e-08
1.04975e-05
3.71991e-08
1.04956e-05
4.08383e-08
1.04939e-05
4.50191e-08
1.04926e-05
4.78744e-08
1.04921e-05
5.08898e-08
5.35407e-08
1.04924e-05
1.13619e-05
2.47043e-09
1.13644e-05
9.75587e-09
1.13641e-05
2.2157e-08
1.13581e-05
6.78089e-09
1.13614e-05
-1.16525e-08
1.13625e-05
-2.54856e-09
1.13572e-05
4.39501e-09
1.13561e-05
7.04436e-09
1.13556e-05
1.3217e-08
1.13508e-05
2.07724e-08
1.1346e-05
2.52759e-08
1.13433e-05
2.82353e-08
1.13413e-05
3.39614e-08
1.13385e-05
3.85728e-08
1.13359e-05
3.97988e-08
1.13342e-05
4.25191e-08
1.13328e-05
4.64037e-08
1.13317e-05
4.89491e-08
1.13315e-05
5.11651e-08
5.31278e-08
1.13319e-05
1.22694e-05
2.41707e-09
1.22704e-05
8.71048e-09
1.22733e-05
1.93036e-08
1.22666e-05
1.35184e-08
1.22651e-05
-1.01874e-08
1.22692e-05
-6.64506e-09
1.22661e-05
7.51844e-09
1.22612e-05
1.19036e-08
1.22598e-05
1.46165e-08
1.22571e-05
2.35166e-08
1.2252e-05
3.03646e-08
1.2248e-05
3.22079e-08
1.22461e-05
3.58726e-08
1.22441e-05
4.05895e-08
1.22416e-05
4.22449e-08
1.224e-05
4.41155e-08
1.2239e-05
4.74613e-08
1.22382e-05
4.9719e-08
1.22381e-05
5.12397e-08
5.25689e-08
1.22387e-05
1.32493e-05
2.04528e-09
1.32488e-05
9.20225e-09
1.32531e-05
1.49877e-08
1.3249e-05
1.76579e-08
1.32425e-05
-3.70187e-09
1.32457e-05
-9.83848e-09
1.32465e-05
6.66515e-09
1.32407e-05
1.77715e-08
1.32363e-05
1.90438e-08
1.32345e-05
2.5293e-08
1.32308e-05
3.40131e-08
1.32263e-05
3.67705e-08
1.32235e-05
3.85906e-08
1.3222e-05
4.21292e-08
1.322e-05
4.42087e-08
1.32186e-05
4.56034e-08
1.32178e-05
4.82675e-08
1.32173e-05
5.01784e-08
1.32174e-05
5.11063e-08
5.18867e-08
1.32181e-05
1.43072e-05
1.56712e-09
1.4306e-05
1.04501e-08
1.43096e-05
1.13066e-08
1.43098e-05
1.7493e-08
1.43008e-05
5.28436e-09
1.42989e-05
-7.91945e-09
1.43026e-05
3.00846e-09
1.42995e-05
2.08246e-08
1.42927e-05
2.588e-08
1.42892e-05
2.87522e-08
1.42872e-05
3.60587e-08
1.42834e-05
4.05432e-08
1.42801e-05
4.19066e-08
1.42783e-05
4.38659e-08
1.42768e-05
4.57449e-08
1.42756e-05
4.68084e-08
1.42751e-05
4.88135e-08
1.42748e-05
5.04055e-08
1.42752e-05
5.07545e-08
5.10431e-08
1.4276e-05
1.54493e-05
1.21988e-09
1.54484e-05
1.13532e-08
1.545e-05
9.76623e-09
1.5453e-05
1.4479e-08
1.54458e-05
1.25261e-08
1.54384e-05
-5.97756e-10
1.544e-05
1.44137e-09
1.54411e-05
1.97296e-08
1.54355e-05
3.14373e-08
1.54296e-05
3.47126e-08
1.5427e-05
3.86309e-08
1.54246e-05
4.29696e-08
1.54217e-05
4.47962e-08
1.54197e-05
4.58997e-08
1.54183e-05
4.70678e-08
1.54173e-05
4.77955e-08
1.54171e-05
4.90546e-08
1.54172e-05
5.0357e-08
1.54177e-05
5.02493e-08
4.99814e-08
1.54187e-05
1.66825e-05
1.19326e-09
1.66826e-05
1.12643e-08
1.66819e-05
1.04231e-08
1.66853e-05
1.10711e-08
1.66819e-05
1.59042e-08
1.66721e-05
9.21866e-09
1.66685e-05
5.10141e-09
1.6671e-05
1.71593e-08
1.66691e-05
3.34139e-08
1.66633e-05
4.04937e-08
1.66587e-05
4.31723e-08
1.66565e-05
4.51725e-08
1.66544e-05
4.69325e-08
1.66527e-05
4.76001e-08
1.66515e-05
4.83039e-08
1.66506e-05
4.86117e-08
1.66506e-05
4.91049e-08
1.6651e-05
4.99358e-08
1.66517e-05
4.95969e-08
4.8749e-08
1.66529e-05
1.80141e-05
1.52667e-09
1.80151e-05
1.02172e-08
1.80133e-05
1.22559e-08
1.80149e-05
9.46688e-09
1.80148e-05
1.59576e-08
1.80064e-05
1.76953e-08
1.79984e-05
1.30811e-08
1.79979e-05
1.76123e-08
1.79994e-05
3.19391e-08
1.79959e-05
4.39802e-08
1.79911e-05
4.80135e-08
1.79875e-05
4.87677e-08
1.79856e-05
4.87856e-08
1.79843e-05
4.89482e-08
1.79835e-05
4.91164e-08
1.79829e-05
4.91293e-08
1.7983e-05
4.90331e-08
1.79837e-05
4.92583e-08
1.79846e-05
4.86437e-08
4.74309e-08
1.7986e-05
1.94521e-05
2.11426e-09
1.94535e-05
8.81171e-09
1.94518e-05
1.40073e-08
1.94509e-05
1.03191e-08
1.94521e-05
1.47676e-08
1.94468e-05
2.29765e-08
1.94375e-05
2.23806e-08
1.94331e-05
2.1976e-08
1.94339e-05
3.11657e-08
1.94342e-05
4.36795e-08
1.94307e-05
5.15688e-08
1.94268e-05
5.26627e-08
1.94238e-05
5.17222e-08
1.94226e-05
5.01595e-08
1.94221e-05
4.96801e-08
1.94219e-05
4.92441e-08
1.94224e-05
4.86147e-08
1.94231e-05
4.84931e-08
1.94244e-05
4.73987e-08
4.59328e-08
1.94259e-05
2.10051e-05
2.78143e-09
2.10063e-05
7.64577e-09
2.10052e-05
1.50658e-08
2.10027e-05
1.28955e-08
2.10028e-05
1.46016e-08
2.10007e-05
2.50718e-08
2.09929e-05
3.01911e-08
2.09858e-05
2.91154e-08
2.09845e-05
3.24957e-08
2.09855e-05
4.26234e-08
2.09851e-05
5.20306e-08
2.09818e-05
5.59383e-08
2.09787e-05
5.48168e-08
2.09766e-05
5.22593e-08
2.09761e-05
5.0203e-08
2.09762e-05
4.915e-08
2.09769e-05
4.78684e-08
2.0978e-05
4.73583e-08
2.09794e-05
4.6081e-08
4.4204e-08
2.09811e-05
2.26823e-05
3.39018e-09
2.26828e-05
7.20078e-09
2.26825e-05
1.52828e-08
2.26792e-05
1.62349e-08
2.26777e-05
1.61325e-08
2.26773e-05
2.54738e-08
2.26719e-05
3.5584e-08
2.26647e-05
3.63296e-08
2.26606e-05
3.65942e-08
2.26609e-05
4.22889e-08
2.26618e-05
5.10808e-08
2.26612e-05
5.66089e-08
2.26585e-05
5.74709e-08
2.26563e-05
5.44508e-08
2.26552e-05
5.13126e-08
2.26552e-05
4.921e-08
2.2656e-05
4.70187e-08
2.26575e-05
4.58499e-08
2.26592e-05
4.44257e-08
4.23592e-08
2.2661e-05
2.44935e-05
3.86811e-09
2.44932e-05
7.49828e-09
2.44932e-05
1.52048e-08
2.44901e-05
1.94106e-08
2.44871e-05
1.90707e-08
2.44865e-05
2.61209e-08
2.44841e-05
3.79599e-08
2.4478e-05
4.24156e-08
2.4473e-05
4.16566e-08
2.44714e-05
4.38622e-08
2.44725e-05
4.99821e-08
2.44732e-05
5.58647e-08
2.44728e-05
5.79341e-08
2.44709e-05
5.63208e-08
2.44699e-05
5.2334e-08
2.44696e-05
4.94854e-08
2.44699e-05
4.66821e-08
2.44716e-05
4.41643e-08
2.44735e-05
4.25496e-08
4.03171e-08
2.44755e-05
2.64492e-05
4.25436e-09
2.64482e-05
8.46982e-09
2.64482e-05
1.51762e-08
2.64458e-05
2.18614e-08
2.6442e-05
2.28821e-08
2.64406e-05
2.75216e-08
2.64396e-05
3.89445e-08
2.64358e-05
4.61542e-08
2.6431e-05
4.64717e-08
2.64284e-05
4.64861e-08
2.64285e-05
4.9854e-08
2.643e-05
5.44479e-08
2.64308e-05
5.71039e-08
2.64308e-05
5.63065e-08
2.643e-05
5.31523e-08
2.643e-05
4.9455e-08
2.64302e-05
4.64445e-08
2.64312e-05
4.32129e-08
2.64332e-05
4.05685e-08
3.81939e-08
2.64353e-05
2.85611e-05
4.48149e-09
2.85597e-05
9.84333e-09
2.85592e-05
1.56529e-08
2.85574e-05
2.37441e-08
2.85537e-05
2.65731e-08
2.85514e-05
2.98064e-08
2.85509e-05
3.94277e-08
2.85491e-05
4.79675e-08
2.85457e-05
4.98726e-08
2.85429e-05
4.92718e-08
2.85423e-05
5.04615e-08
2.85433e-05
5.34162e-08
2.85449e-05
5.54955e-08
2.8546e-05
5.51903e-08
2.85468e-05
5.23874e-08
2.85472e-05
4.91173e-08
2.85479e-05
4.56855e-08
2.85488e-05
4.23313e-08
2.85501e-05
3.92199e-08
3.60932e-08
2.85522e-05
3.08415e-05
4.65024e-09
3.08399e-05
1.14493e-08
3.08391e-05
1.6477e-08
3.08376e-05
2.51996e-08
3.08344e-05
2.98186e-08
3.08318e-05
3.23797e-08
3.08312e-05
4.00721e-08
3.08305e-05
4.86206e-08
3.08286e-05
5.18221e-08
3.08266e-05
5.11874e-08
3.08259e-05
5.11951e-08
3.08267e-05
5.26212e-08
3.08282e-05
5.39667e-08
3.083e-05
5.33907e-08
3.08315e-05
5.08782e-08
3.08331e-05
4.75367e-08
3.08343e-05
4.45448e-08
3.08356e-05
4.10079e-08
3.08369e-05
3.79157e-08
3.45458e-08
3.08384e-05
3.3304e-05
4.7311e-09
3.33024e-05
1.30603e-08
3.33011e-05
1.77788e-08
3.33001e-05
2.62226e-08
3.32975e-05
3.24454e-08
3.3295e-05
3.48858e-08
3.32944e-05
4.06349e-08
3.32944e-05
4.85801e-08
3.32936e-05
5.26644e-08
3.32925e-05
5.22323e-08
3.32923e-05
5.14417e-08
3.32931e-05
5.1774e-08
3.32948e-05
5.23376e-08
3.32966e-05
5.157e-08
3.32985e-05
4.89904e-08
3.33005e-05
4.55006e-08
3.33026e-05
4.25102e-08
3.33041e-05
3.94267e-08
3.33058e-05
3.6241e-08
3.2979e-08
3.33074e-05
3.5963e-05
4.85609e-09
3.59617e-05
1.44047e-08
3.59601e-05
1.93445e-08
3.59594e-05
2.69061e-08
3.59576e-05
3.42445e-08
3.59554e-05
3.70946e-08
3.59548e-05
4.12031e-08
3.59556e-05
4.78625e-08
3.59558e-05
5.24646e-08
3.59555e-05
5.25251e-08
3.59558e-05
5.11334e-08
3.5957e-05
5.05892e-08
3.59588e-05
5.05243e-08
3.59609e-05
4.94337e-08
3.59627e-05
4.7148e-08
3.5965e-05
4.32857e-08
3.59674e-05
4.0073e-08
3.59697e-05
3.7109e-08
3.59717e-05
3.42068e-08
3.11746e-08
3.59736e-05
3.88343e-05
5.04101e-09
3.88334e-05
1.53056e-08
3.88317e-05
2.09892e-08
3.88313e-05
2.73815e-08
3.88304e-05
3.51093e-08
3.88288e-05
3.8668e-08
3.88284e-05
4.16292e-08
3.88296e-05
4.66223e-08
3.88309e-05
5.11943e-08
3.88315e-05
5.19621e-08
3.88322e-05
5.03777e-08
3.88338e-05
4.89928e-08
3.88359e-05
4.84587e-08
3.88383e-05
4.69897e-08
3.88406e-05
4.485e-08
3.88427e-05
4.12461e-08
3.88454e-05
3.73787e-08
3.8848e-05
3.45094e-08
3.88506e-05
3.15779e-08
2.90327e-08
3.88527e-05
4.19348e-05
5.28491e-09
4.19344e-05
1.57347e-08
4.1933e-05
2.23079e-08
4.19326e-05
2.77991e-08
4.19328e-05
3.49774e-08
4.19321e-05
3.92743e-08
4.19321e-05
4.16933e-08
4.19336e-05
4.51437e-08
4.19358e-05
4.89965e-08
4.19375e-05
5.02423e-08
4.19388e-05
4.9048e-08
4.19408e-05
4.70145e-08
4.19433e-05
4.59211e-08
4.1946e-05
4.43326e-08
4.19489e-05
4.1968e-08
4.19511e-05
3.8989e-08
4.19535e-05
3.49514e-08
4.19564e-05
3.16762e-08
4.19591e-05
2.88993e-08
2.63741e-08
4.19617e-05
4.5283e-05
5.48021e-09
4.52829e-05
1.57924e-08
4.52823e-05
2.29327e-08
4.5282e-05
2.80432e-08
4.52829e-05
3.41303e-08
4.52835e-05
3.86761e-08
4.52841e-05
4.10361e-08
4.5286e-05
4.33292e-08
4.52888e-05
4.6171e-08
4.52915e-05
4.74727e-08
4.52938e-05
4.67747e-08
4.52962e-05
4.4649e-08
4.52992e-05
4.28746e-08
4.53024e-05
4.1198e-08
4.53056e-05
3.87077e-08
4.53086e-05
3.60254e-08
4.5311e-05
3.25125e-08
4.53138e-05
2.89459e-08
4.53165e-05
2.62063e-08
2.37e-08
4.53191e-05
4.88986e-05
5.52998e-09
4.88988e-05
1.55274e-08
4.8899e-05
2.27422e-08
4.88993e-05
2.77249e-08
4.89007e-05
3.27445e-08
4.89024e-05
3.69634e-08
4.89041e-05
3.93521e-08
4.89065e-05
4.09404e-08
4.89098e-05
4.28298e-08
4.89134e-05
4.38781e-08
4.89167e-05
4.34622e-08
4.89197e-05
4.16564e-08
4.89231e-05
3.94903e-08
4.89269e-05
3.74506e-08
4.89305e-05
3.50826e-08
4.8934e-05
3.24954e-08
4.89369e-05
2.96415e-08
4.89396e-05
2.6287e-08
4.89421e-05
2.36328e-08
2.12722e-08
4.89446e-05
5.28029e-05
5.37823e-09
5.28035e-05
1.48856e-08
5.28045e-05
2.17295e-08
5.28057e-05
2.65637e-08
5.28077e-05
3.07503e-08
5.28103e-05
3.43426e-08
5.2813e-05
3.65966e-08
5.28162e-05
3.77564e-08
5.28202e-05
3.88511e-08
5.28246e-05
3.95041e-08
5.28288e-05
3.92186e-08
5.28327e-05
3.78272e-08
5.28363e-05
3.58145e-08
5.28401e-05
3.36369e-08
5.2844e-05
3.1262e-08
5.28478e-05
2.86932e-08
5.28512e-05
2.62521e-08
5.2854e-05
2.34611e-08
5.28567e-05
2.09196e-08
1.89857e-08
5.2859e-05
5.70189e-05
5.00402e-09
5.702e-05
1.37739e-08
5.70218e-05
1.99602e-08
5.70239e-05
2.44024e-08
5.70267e-05
2.79555e-08
5.70302e-05
3.08571e-08
5.7034e-05
3.28402e-08
5.7038e-05
3.37697e-08
5.70425e-05
3.43187e-08
5.70475e-05
3.44495e-08
5.70528e-05
3.40028e-08
5.70577e-05
3.28854e-08
5.70621e-05
3.13751e-08
5.70661e-05
2.97277e-08
5.70695e-05
2.78463e-08
5.70726e-05
2.55532e-08
5.70756e-05
2.32141e-08
5.70787e-05
2.03643e-08
5.70817e-05
1.79854e-08
1.60009e-08
5.70847e-05
6.15715e-05
4.40945e-09
6.15732e-05
1.21012e-08
6.15757e-05
1.74545e-08
6.15788e-05
2.12656e-08
6.15826e-05
2.42221e-08
6.1587e-05
2.64732e-08
6.15917e-05
2.80798e-08
6.15966e-05
2.89015e-08
6.16016e-05
2.92552e-08
6.16069e-05
2.92054e-08
6.16123e-05
2.86098e-08
6.16179e-05
2.72344e-08
6.16237e-05
2.56242e-08
6.16296e-05
2.37966e-08
6.16354e-05
2.21027e-08
6.16404e-05
2.0473e-08
6.16444e-05
1.92509e-08
6.16471e-05
1.76842e-08
6.1649e-05
1.60314e-08
1.45157e-08
6.16505e-05
6.64876e-05
3.60174e-09
6.64899e-05
9.79723e-09
6.64932e-05
1.41693e-08
6.64973e-05
1.72005e-08
6.65019e-05
1.95479e-08
6.65071e-05
2.12632e-08
6.65128e-05
2.24592e-08
6.65186e-05
2.30972e-08
6.65245e-05
2.3355e-08
6.65304e-05
2.32915e-08
6.65361e-05
2.29261e-08
6.65411e-05
2.2219e-08
6.65455e-05
2.12452e-08
6.65493e-05
1.99466e-08
6.6553e-05
1.84381e-08
6.65566e-05
1.68103e-08
6.65607e-05
1.51524e-08
6.65648e-05
1.36049e-08
6.65687e-05
1.21606e-08
1.08862e-08
6.65723e-05
7.17961e-05
2.63213e-09
7.17989e-05
7.00884e-09
7.18029e-05
1.0142e-08
7.18078e-05
1.23019e-08
7.18134e-05
1.39762e-08
7.18195e-05
1.52188e-08
7.18258e-05
1.6085e-08
7.18324e-05
1.65479e-08
7.1839e-05
1.67323e-08
7.18456e-05
1.66627e-08
7.18522e-05
1.63708e-08
7.18586e-05
1.58234e-08
7.18647e-05
1.50969e-08
7.18705e-05
1.42038e-08
7.18757e-05
1.32417e-08
7.18802e-05
1.22562e-08
7.18841e-05
1.12367e-08
7.18875e-05
1.02278e-08
7.18904e-05
9.2602e-09
8.35497e-09
7.1893e-05
7.75288e-05
7.75323e-05
7.75372e-05
7.75429e-05
7.75493e-05
7.75562e-05
7.75633e-05
7.75706e-05
7.75779e-05
7.75851e-05
7.75921e-05
7.75987e-05
7.7605e-05
7.76108e-05
7.76162e-05
7.76211e-05
7.76254e-05
7.76293e-05
7.76327e-05
7.76356e-05
3.77298e-06
6.66758e-08
3.67831e-06
9.46772e-08
3.57834e-06
9.9971e-08
3.47993e-06
9.84035e-08
3.38189e-06
9.80377e-08
3.28282e-06
9.9073e-08
3.18206e-06
1.00759e-07
3.07962e-06
1.02442e-07
2.9756e-06
1.04024e-07
2.86994e-06
1.0566e-07
2.76251e-06
1.07428e-07
2.65309e-06
1.09423e-07
2.54183e-06
1.11251e-07
2.42848e-06
1.13354e-07
2.31259e-06
1.15889e-07
2.19425e-06
1.18338e-07
2.07445e-06
1.19805e-07
1.95367e-06
1.20778e-07
1.83167e-06
1.22004e-07
1.70953e-06
1.22132e-07
1.58868e-06
1.20858e-07
1.4698e-06
1.18873e-07
1.35433e-06
1.15479e-07
1.24529e-06
1.09039e-07
1.14655e-06
9.87345e-08
1.0611e-06
8.54505e-08
9.91588e-07
6.95139e-08
9.39179e-07
5.24083e-08
9.01769e-07
3.74103e-08
8.75833e-07
2.59358e-08
8.57962e-07
1.78708e-08
8.4506e-07
1.29023e-08
8.351e-07
9.95961e-09
8.26765e-07
8.3358e-09
8.18784e-07
7.98107e-09
8.10486e-07
8.29726e-09
8.01812e-07
8.67459e-09
7.93457e-07
8.35466e-09
7.8529e-07
8.16682e-09
7.76139e-07
9.1515e-09
7.6623e-07
9.90884e-09
7.56427e-07
9.80288e-09
7.46502e-07
9.92495e-09
7.37153e-07
9.3488e-09
7.28355e-07
8.79826e-09
7.18306e-07
1.00495e-08
7.07748e-07
1.05572e-08
6.98925e-07
8.82372e-09
6.91436e-07
7.48831e-09
6.83837e-07
7.59892e-09
6.7589e-07
7.94728e-09
6.6866e-07
7.23047e-09
6.62921e-07
5.73874e-09
6.5741e-07
5.51079e-09
6.51608e-07
5.80164e-09
6.46565e-07
5.0431e-09
6.42178e-07
4.38718e-09
6.37945e-07
4.23285e-09
6.34266e-07
3.67968e-09
6.31033e-07
3.23305e-09
6.28184e-07
2.8485e-09
6.2599e-07
2.19416e-09
6.23979e-07
2.01067e-09
6.22044e-07
1.93542e-09
6.20709e-07
1.33437e-09
6.19674e-07
1.03541e-09
6.18459e-07
1.21463e-09
6.17552e-07
9.07449e-10
6.17186e-07
3.65638e-10
6.16797e-07
3.88869e-10
6.16302e-07
4.95573e-10
6.16038e-07
2.64136e-10
6.16009e-07
2.8701e-11
6.15943e-07
6.62311e-11
6.15832e-07
1.1033e-10
6.15809e-07
2.30878e-11
6.15824e-07
-1.49347e-11
6.15869e-07
-4.50439e-11
6.15901e-07
-3.16806e-11
6.1597e-07
-6.91154e-11
6.16051e-07
-8.12712e-11
6.16121e-07
-6.96811e-11
6.16219e-07
-9.81835e-11
6.16278e-07
-5.88858e-11
6.16369e-07
-9.11949e-11
6.16424e-07
-5.42833e-11
6.16478e-07
-5.43761e-11
6.1653e-07
-5.159e-11
6.16548e-07
-1.78869e-11
6.1658e-07
-3.20186e-11
6.16587e-07
-7.44688e-12
6.16579e-07
8.27845e-12
6.16582e-07
-3.52741e-12
6.16545e-07
3.71223e-11
6.16509e-07
3.64724e-11
6.16462e-07
4.65435e-11
6.16363e-07
9.94835e-11
6.16238e-07
1.24647e-10
6.16e-07
2.37874e-10
1.14115e-09
4.16341e-06
6.07126e-08
4.16718e-06
9.09109e-08
4.16134e-06
1.05814e-07
4.15135e-06
1.08391e-07
4.14058e-06
1.08808e-07
4.12865e-06
1.10996e-07
4.1146e-06
1.14817e-07
4.09771e-06
1.19329e-07
4.07811e-06
1.23626e-07
4.05549e-06
1.28277e-07
4.02993e-06
1.32985e-07
4.00101e-06
1.38343e-07
3.96862e-06
1.43639e-07
3.93268e-06
1.493e-07
3.8926e-06
1.55965e-07
3.84844e-06
1.62497e-07
3.79981e-06
1.68442e-07
3.74725e-06
1.7333e-07
3.69019e-06
1.79069e-07
3.62854e-06
1.83777e-07
3.56334e-06
1.86061e-07
3.49459e-06
1.87623e-07
3.42319e-06
1.86874e-07
3.34973e-06
1.82501e-07
3.27638e-06
1.72082e-07
3.20523e-06
1.56606e-07
3.13729e-06
1.37449e-07
3.07457e-06
1.15132e-07
3.01752e-06
9.44645e-08
2.9658e-06
7.76558e-08
2.91864e-06
6.50244e-08
2.87411e-06
5.74341e-08
2.83163e-06
5.24386e-08
2.79083e-06
4.91342e-08
2.75063e-06
4.81819e-08
2.71055e-06
4.83779e-08
2.67115e-06
4.80747e-08
2.63291e-06
4.65933e-08
2.59538e-06
4.56953e-08
2.55858e-06
4.59607e-08
2.52196e-06
4.6521e-08
2.48464e-06
4.71284e-08
2.44813e-06
4.64299e-08
2.41427e-06
4.32148e-08
2.38132e-06
4.17501e-08
2.3474e-06
4.39606e-08
2.31394e-06
4.40231e-08
2.28275e-06
4.00124e-08
2.25327e-06
3.69663e-08
2.22444e-06
3.6435e-08
2.19677e-06
3.56107e-08
2.17143e-06
3.25682e-08
2.14809e-06
2.90834e-08
2.12554e-06
2.80618e-08
2.10405e-06
2.72861e-08
2.08439e-06
2.47053e-08
2.06619e-06
2.25927e-08
2.04925e-06
2.11701e-08
2.03402e-06
1.89082e-08
2.02039e-06
1.68599e-08
2.00816e-06
1.50863e-08
1.99734e-06
1.30096e-08
1.98774e-06
1.16135e-08
1.97931e-06
1.03625e-08
1.97206e-06
8.58757e-09
1.96561e-06
7.48215e-09
1.95986e-06
6.96488e-09
1.95516e-06
5.6058e-09
1.95139e-06
4.13467e-09
1.9481e-06
3.6869e-09
1.94531e-06
3.28354e-09
1.94323e-06
2.34553e-09
1.94168e-06
1.57528e-09
1.9404e-06
1.34947e-09
1.93934e-06
1.16608e-09
1.93857e-06
7.8907e-10
1.93801e-06
5.48425e-10
1.93763e-06
3.34431e-10
1.93738e-06
2.19981e-10
1.93729e-06
2.32746e-11
1.9373e-06
-9.19195e-11
1.9374e-06
-1.70155e-10
1.93757e-06
-2.72469e-10
1.93778e-06
-2.67463e-10
1.93802e-06
-3.3414e-10
1.93826e-06
-2.9121e-10
1.93848e-06
-2.7031e-10
1.93868e-06
-2.55651e-10
1.93882e-06
-1.59968e-10
1.93896e-06
-1.68019e-10
1.93903e-06
-8.15929e-11
1.93909e-06
-4.3866e-11
1.93911e-06
-2.73576e-11
1.93909e-06
5.68096e-11
1.93905e-06
7.71992e-11
1.93898e-06
1.17302e-10
1.93886e-06
2.14143e-10
1.93863e-06
3.55953e-10
1.93846e-06
4.0993e-10
2.35893e-09
4.49691e-06
5.86676e-08
4.50298e-06
8.48439e-08
4.50612e-06
1.02666e-07
4.50563e-06
1.08886e-07
4.5044e-06
1.10043e-07
4.50386e-06
1.11534e-07
4.50392e-06
1.14755e-07
4.50381e-06
1.1944e-07
4.50329e-06
1.2415e-07
4.50206e-06
1.29507e-07
4.50013e-06
1.34908e-07
4.49737e-06
1.41104e-07
4.49355e-06
1.4746e-07
4.48878e-06
1.54066e-07
4.48274e-06
1.62012e-07
4.47544e-06
1.69797e-07
4.46632e-06
1.77565e-07
4.45556e-06
1.84082e-07
4.44297e-06
1.91664e-07
4.42792e-06
1.98823e-07
4.4109e-06
2.0308e-07
4.3918e-06
2.06726e-07
4.37076e-06
2.07913e-07
4.34756e-06
2.05699e-07
4.32256e-06
1.97085e-07
4.29666e-06
1.82509e-07
4.26955e-06
1.64554e-07
4.2421e-06
1.42583e-07
4.21532e-06
1.21248e-07
4.18968e-06
1.03293e-07
4.1653e-06
8.93998e-08
4.14135e-06
8.13901e-08
4.11745e-06
7.63422e-08
4.09342e-06
7.31583e-08
4.06882e-06
7.27838e-08
4.04358e-06
7.36218e-08
4.01778e-06
7.38732e-08
3.99201e-06
7.23601e-08
3.96604e-06
7.16696e-08
3.9393e-06
7.26956e-08
3.91228e-06
7.35464e-08
3.88427e-06
7.51331e-08
3.85533e-06
7.53674e-08
3.82747e-06
7.10784e-08
3.79967e-06
6.95535e-08
3.77037e-06
7.32574e-08
3.74088e-06
7.35154e-08
3.71213e-06
6.87577e-08
3.68382e-06
6.52735e-08
3.6552e-06
6.50594e-08
3.6262e-06
6.4615e-08
3.59843e-06
6.03378e-08
3.57189e-06
5.56221e-08
3.54543e-06
5.45141e-08
3.51993e-06
5.27936e-08
3.49581e-06
4.88262e-08
3.47214e-06
4.62561e-08
3.44904e-06
4.42724e-08
3.42687e-06
4.10741e-08
3.40576e-06
3.79768e-08
3.38625e-06
3.45963e-08
3.36831e-06
3.09435e-08
3.35149e-06
2.84358e-08
3.33611e-06
2.57491e-08
3.32218e-06
2.25083e-08
3.30909e-06
2.05729e-08
3.29688e-06
1.91772e-08
3.28606e-06
1.64302e-08
3.27638e-06
1.38067e-08
3.26748e-06
1.25878e-08
3.25953e-06
1.12412e-08
3.25272e-06
9.15642e-09
3.24683e-06
7.45576e-09
3.24169e-06
6.49425e-09
3.23726e-06
5.5975e-09
3.23354e-06
4.5032e-09
3.23044e-06
3.64953e-09
3.2279e-06
2.87581e-09
3.22586e-06
2.25843e-09
3.2243e-06
1.5862e-09
3.22313e-06
1.08029e-09
3.22233e-06
6.30302e-10
3.22183e-06
2.22393e-10
3.22164e-06
-7.24651e-11
3.22167e-06
-3.66931e-10
3.22189e-06
-5.10907e-10
3.22223e-06
-6.13087e-10
3.22263e-06
-6.53648e-10
3.22305e-06
-5.78418e-10
3.22343e-06
-5.51664e-10
3.22377e-06
-4.15567e-10
3.22402e-06
-2.99182e-10
3.22422e-06
-2.28464e-10
3.22431e-06
-3.03387e-11
3.22439e-06
-6.20979e-12
3.22434e-06
1.75931e-10
3.22433e-06
2.16769e-10
3.22407e-06
6.17403e-10
3.224e-06
4.79713e-10
3.1908e-09
4.85816e-06
5.81917e-08
4.86274e-06
8.02589e-08
4.86726e-06
9.81458e-08
4.86872e-06
1.07427e-07
4.86844e-06
1.10327e-07
4.86851e-06
1.11457e-07
4.86924e-06
1.14031e-07
4.87054e-06
1.18132e-07
4.87207e-06
1.22622e-07
4.87354e-06
1.28036e-07
4.87484e-06
1.33611e-07
4.87603e-06
1.39914e-07
4.87701e-06
1.46481e-07
4.87796e-06
1.53116e-07
4.87888e-06
1.61094e-07
4.8798e-06
1.68873e-07
4.88045e-06
1.76914e-07
4.88089e-06
1.83639e-07
4.88129e-06
1.91271e-07
4.8811e-06
1.99008e-07
4.88052e-06
2.03657e-07
4.87961e-06
2.07637e-07
4.87825e-06
2.09277e-07
4.87601e-06
2.07936e-07
4.87259e-06
2.00512e-07
4.86821e-06
1.86887e-07
4.86225e-06
1.70511e-07
4.8546e-06
1.50234e-07
4.84613e-06
1.29717e-07
4.83749e-06
1.11937e-07
4.82913e-06
9.7756e-08
4.82095e-06
8.95716e-08
4.81263e-06
8.46594e-08
4.80407e-06
8.17204e-08
4.79505e-06
8.18054e-08
4.78562e-06
8.30525e-08
4.77577e-06
8.37251e-08
4.76569e-06
8.24385e-08
4.75546e-06
8.1901e-08
4.74467e-06
8.34796e-08
4.7336e-06
8.46204e-08
4.72212e-06
8.66176e-08
4.70972e-06
8.7768e-08
4.69727e-06
8.35266e-08
4.68463e-06
8.21939e-08
4.67098e-06
8.69086e-08
4.65696e-06
8.75299e-08
4.64299e-06
8.27292e-08
4.62885e-06
7.94141e-08
4.6143e-06
7.96042e-08
4.59898e-06
7.99364e-08
4.58363e-06
7.56943e-08
4.56851e-06
7.07429e-08
4.55285e-06
7.01705e-08
4.53712e-06
6.85263e-08
4.52194e-06
6.40043e-08
4.50688e-06
6.13186e-08
4.492e-06
5.91457e-08
4.47752e-06
5.55543e-08
4.46323e-06
5.22726e-08
4.44929e-06
4.85302e-08
4.43566e-06
4.45767e-08
4.42202e-06
4.20748e-08
4.40885e-06
3.89173e-08
4.39665e-06
3.47146e-08
4.38519e-06
3.20309e-08
4.37445e-06
2.99117e-08
4.36466e-06
2.6219e-08
4.35553e-06
2.29445e-08
4.34671e-06
2.14016e-08
4.33835e-06
1.96039e-08
4.33064e-06
1.68675e-08
4.32351e-06
1.45848e-08
4.31691e-06
1.30922e-08
4.31093e-06
1.15839e-08
4.30557e-06
9.85669e-09
4.30083e-06
8.38911e-09
4.29666e-06
7.0459e-09
4.29306e-06
5.86517e-09
4.28998e-06
4.66172e-09
4.28738e-06
3.67878e-09
4.28525e-06
2.76206e-09
4.28354e-06
1.92848e-09
4.28226e-06
1.21594e-09
4.28136e-06
5.29971e-10
4.28078e-06
7.01202e-11
4.28053e-06
-3.65982e-10
4.28049e-06
-6.16313e-10
4.28071e-06
-7.96016e-10
4.28105e-06
-8.86539e-10
4.28151e-06
-8.79491e-10
4.28196e-06
-7.46145e-10
4.28243e-06
-6.9887e-10
4.28273e-06
-3.36986e-10
4.28305e-06
-3.26357e-10
4.28313e-06
9.66809e-11
4.28329e-06
6.04105e-11
4.28312e-06
7.88152e-10
4.28315e-06
4.4905e-10
3.60644e-09
5.24777e-06
5.80941e-08
5.25133e-06
7.66985e-08
5.25562e-06
9.38492e-08
5.2583e-06
1.04754e-07
5.25911e-06
1.09517e-07
5.25935e-06
1.11214e-07
5.25986e-06
1.13525e-07
5.26104e-06
1.16952e-07
5.26272e-06
1.2094e-07
5.26455e-06
1.26209e-07
5.26624e-06
1.31917e-07
5.26791e-06
1.38241e-07
5.26945e-06
1.44944e-07
5.27105e-06
1.51519e-07
5.27283e-06
1.59311e-07
5.27483e-06
1.66872e-07
5.27695e-06
1.74791e-07
5.27917e-06
1.81428e-07
5.28183e-06
1.88603e-07
5.28461e-06
1.96235e-07
5.28747e-06
2.00789e-07
5.29065e-06
2.04462e-07
5.29397e-06
2.05954e-07
5.2971e-06
2.04813e-07
5.29943e-06
1.98176e-07
5.30106e-06
1.8526e-07
5.30151e-06
1.70062e-07
5.30023e-06
1.51511e-07
5.29783e-06
1.32115e-07
5.29499e-06
1.14778e-07
5.29224e-06
1.00505e-07