/*--------------------------------*- C++ -*----------------------------------*\
| =========                 |                                                 |
| \\      /  F ield         | OpenFOAM: The Open Source CFD Toolbox           |
|  \\    /   O peration     | Version:  v1906                                 |
|   \\  /    A nd           | Web:      www.OpenFOAM.com                      |
|    \\/     M anipulation  |                                                 |
\*---------------------------------------------------------------------------*/
FoamFile
{
    version     2.0;
    format      ascii;
    class       volVectorField;
    location    "0.5";
    object      U;
}
// * * * * * * * * * * * * * * * * * * * * * * * * * * * * * * * * * * * * * //

dimensions      [0 1 -1 0 0 0 0];


internalField   nonuniform List<vector> 
4800
(
(0.95976 4.02656e-07 0)
(1.03929 -3.40764e-05 0)
(0.963291 0.000493196 0)
(1.03618 -5.61488e-05 0)
(0.967127 -4.30899e-06 0)
(1.03185 -0.000734953 0)
(0.968806 -1.55105e-05 0)
(1.02732 -0.000167922 0)
(0.971806 0.000473421 0)
(1.02398 5.13919e-05 0)
(0.975527 0.000790417 0)
(1.02157 0.000188623 0)
(0.978965 0.00104188 0)
(1.01976 -0.000103693 0)
(0.981797 0.000511114 0)
(1.01712 -0.000351543 0)
(0.983309 5.1693e-05 0)
(1.01363 -0.000722736 0)
(0.983603 0.000153785 0)
(1.01004 0.000443896 0)
(0.982089 -6.78366e-05 0)
(1.0151 4.69656e-05 0)
(0.986009 0.000428103 0)
(1.0121 -7.88922e-06 0)
(0.989664 -2.98656e-05 0)
(1.00851 -0.000646263 0)
(0.990959 1.46228e-06 0)
(1.00507 -0.000129557 0)
(0.992913 0.000540849 0)
(1.00299 -4.41669e-06 0)
(0.995274 0.000804683 0)
(1.00188 7.29417e-05 0)
(0.997087 0.00101906 0)
(1.00158 -0.000231314 0)
(0.998349 0.000508127 0)
(1.00064 -0.000454112 0)
(0.998321 0.000160913 0)
(0.998933 -0.000378675 0)
(0.997477 0.00100146 0)
(0.997198 0.00179542 0)
(0.995646 4.16622e-05 0)
(1.0028 -6.85146e-05 0)
(0.997128 0.000476602 0)
(1.00204 -8.90769e-05 0)
(0.998386 4.05993e-05 0)
(1.00076 -0.000611108 0)
(0.997984 3.12066e-05 0)
(0.999459 -9.00743e-05 0)
(0.998167 0.000352853 0)
(0.999158 0.000122739 0)
(0.998839 0.000496121 0)
(0.999241 0.000310168 0)
(0.999299 0.00060914 0)
(0.999901 8.42889e-05 0)
(0.999751 0.000172997 0)
(0.999754 -0.000100211 0)
(0.999329 5.12402e-05 0)
(0.998811 0.000426155 0)
(0.998335 0.00126815 0)
(0.997784 0.00219159 0)
(0.999317 8.41903e-07 0)
(1.00022 -8.29154e-06 0)
(0.999655 0.000467488 0)
(1.00035 -6.24772e-05 0)
(0.999978 -3.88666e-06 0)
(0.999825 -0.000565331 0)
(0.999174 -1.41047e-05 0)
(0.99918 3.19874e-05 0)
(0.999106 0.000276789 0)
(0.999164 0.000277418 0)
(0.99935 0.00034486 0)
(0.999298 0.000413336 0)
(0.999535 0.000482262 0)
(0.999921 0.000117762 0)
(0.999913 8.20897e-05 0)
(0.999826 5.1791e-05 0)
(0.999551 0.000172151 0)
(0.999111 0.000683851 0)
(0.998755 0.00141178 0)
(0.998306 0.00227189 0)
(0.999892 3.64879e-05 0)
(0.999951 -2.88779e-05 0)
(1.00002 0.000397775 0)
(1.00022 -2.03919e-05 0)
(1.00017 -3.83137e-05 0)
(0.999804 -0.000417321 0)
(0.999351 -9.87376e-05 0)
(0.999302 0.000155007 0)
(0.999373 0.000121536 0)
(0.99933 0.000350926 0)
(0.999485 0.000247362 0)
(0.999424 0.000358071 0)
(0.999611 0.000393716 0)
(0.999975 9.48073e-05 0)
(0.999997 0.000129411 0)
(0.999899 0.000229068 0)
(0.999701 0.000492214 0)
(0.999302 0.00103566 0)
(0.999004 0.00162332 0)
(0.998633 0.00242171 0)
(0.999952 1.86033e-05 0)
(0.999949 2.64252e-05 0)
(1.00006 0.000363751 0)
(1.00021 3.34902e-05 0)
(1.00017 -0.000106393 0)
(0.999812 -0.000316935 0)
(0.999393 -0.000174247 0)
(0.999339 0.000239056 0)
(0.999458 7.29696e-05 0)
(0.9994 0.00032864 0)
(0.999513 0.000273346 0)
(0.999476 0.000265341 0)
(0.999625 0.000390622 0)
(0.999984 0.000113791 0)
(1.00005 0.000223113 0)
(0.99996 0.000460647 0)
(0.999805 0.000716827 0)
(0.999437 0.00121706 0)
(0.99918 0.00176828 0)
(0.998868 0.00249305 0)
(0.999958 2.21606e-05 0)
(0.999959 4.49115e-05 0)
(1.00006 0.000280765 0)
(1.00019 9.30032e-05 0)
(1.00016 -0.000156068 0)
(0.99981 -0.000212247 0)
(0.999415 -0.000190526 0)
(0.999354 0.000208208 0)
(0.999476 0.000130582 0)
(0.99943 0.000221185 0)
(0.999514 0.000301089 0)
(0.99949 0.000207669 0)
(0.999627 0.000356927 0)
(0.999983 0.000204653 0)
(1.00011 0.000369576 0)
(1.00002 0.000665177 0)
(0.999893 0.000894362 0)
(0.999568 0.0013581 0)
(0.99935 0.00192214 0)
(0.999083 0.00256913 0)
(0.999961 1.49476e-05 0)
(0.999965 9.57633e-05 0)
(1.00006 0.000210314 0)
(1.00018 0.000149255 0)
(1.00015 -0.000193362 0)
(0.999811 -0.00017549 0)
(0.999435 -0.000152459 0)
(0.999372 0.000128862 0)
(0.999479 0.000174689 0)
(0.999441 0.000190835 0)
(0.999515 0.000243462 0)
(0.999494 0.000230919 0)
(0.99963 0.000363128 0)
(0.999994 0.000325342 0)
(1.00016 0.000516754 0)
(1.00008 0.000834814 0)
(0.999975 0.00105285 0)
(0.999703 0.00148322 0)
(0.999519 0.00204327 0)
(0.999286 0.00261788 0)
(0.999963 1.10081e-05 0)
(0.999966 0.000141243 0)
(1.00006 0.000143814 0)
(1.00016 0.000173844 0)
(1.00013 -0.000172006 0)
(0.999814 -0.000180211 0)
(0.999447 -7.86576e-05 0)
(0.999388 8.7367e-05 0)
(0.999484 0.000154224 0)
(0.999439 0.000225096 0)
(0.999515 0.000196596 0)
(0.999508 0.000233679 0)
(0.999639 0.000452446 0)
(1.00001 0.000470196 0)
(1.00021 0.000646928 0)
(1.00014 0.000975594 0)
(1.00006 0.00120224 0)
(0.99984 0.0015951 0)
(0.999689 0.00213515 0)
(0.999483 0.00267075 0)
(0.999966 7.00879e-06 0)
(0.999964 0.000182358 0)
(1.00006 0.000106962 0)
(1.00014 0.000154619 0)
(1.00011 -0.000114297 0)
(0.999818 -0.0002227 0)
(0.999462 -2.40905e-05 0)
(0.999395 9.81939e-05 0)
(0.999493 8.79197e-05 0)
(0.99944 0.000241818 0)
(0.999508 0.000229758 0)
(0.999534 0.000232872 0)
(0.999666 0.00053183 0)
(1.00003 0.00062363 0)
(1.00027 0.000768002 0)
(1.00021 0.00108984 0)
(1.00014 0.00134891 0)
(0.999977 0.00169945 0)
(0.999863 0.00219876 0)
(0.999675 0.00270686 0)
(0.999968 6.24882e-06 0)
(0.999959 0.000207562 0)
(1.00005 0.000106336 0)
(1.00012 9.33409e-05 0)
(1.00009 -4.35129e-05 0)
(0.999818 -0.000225145 0)
(0.999479 -2.64564e-05 0)
(0.999393 0.000148439 0)
(0.999496 6.00085e-05 0)
(0.99945 0.00020595 0)
(0.999501 0.000309033 0)
(0.999556 0.000301883 0)
(0.999707 0.000587149 0)
(1.00005 0.00074357 0)
(1.00032 0.000877019 0)
(1.00029 0.00118823 0)
(1.00023 0.00147918 0)
(1.0001 0.00180624 0)
(1.00003 0.00225496 0)
(0.999862 0.00273505 0)
(0.99997 7.8317e-06 0)
(0.999954 0.00021061 0)
(1.00003 0.00014252 0)
(1.00011 2.20224e-05 0)
(1.00006 -1.24539e-06 0)
(0.99981 -0.0001805 0)
(0.999502 -6.43847e-05 0)
(0.999394 0.000178267 0)
(0.999489 0.000103623 0)
(0.999468 0.000165855 0)
(0.99951 0.000361187 0)
(0.999578 0.000434134 0)
(0.999749 0.000677335 0)
(1.00008 0.000852887 0)
(1.00037 0.000983337 0)
(1.00037 0.0012716 0)
(1.00032 0.00156372 0)
(1.00023 0.00188716 0)
(1.0002 0.00229641 0)
(1.00005 0.00274213 0)
(0.999973 1.25546e-05 0)
(0.999952 0.00018602 0)
(1.00001 0.000199815 0)
(1.00009 -2.96542e-05 0)
(1.00005 -2.07966e-05 0)
(0.999797 -9.40426e-05 0)
(0.99952 -9.11168e-05 0)
(0.999403 0.000145534 0)
(0.999478 0.000188338 0)
(0.999483 0.000195676 0)
(0.999539 0.000378924 0)
(0.999611 0.000531552 0)
(0.999791 0.00077029 0)
(1.00011 0.000957231 0)
(1.00042 0.00108942 0)
(1.00045 0.00135857 0)
(1.00042 0.00164832 0)
(1.00036 0.00195536 0)
(1.00037 0.00233588 0)
(1.00023 0.00273927 0)
(0.999975 2.01174e-05 0)
(0.999954 0.000145551 0)
(0.999985 0.000254731 0)
(1.00006 -2.02332e-05 0)
(1.00004 -9.13844e-05 0)
(0.999786 -2.41717e-05 0)
(0.999528 -6.11709e-05 0)
(0.999426 0.00010319 0)
(0.999481 0.000238652 0)
(0.999491 0.000306582 0)
(0.999568 0.000441692 0)
(0.999657 0.000598799 0)
(0.999844 0.000842432 0)
(1.00015 0.00105631 0)
(1.00048 0.00118636 0)
(1.00054 0.00143157 0)
(1.00053 0.00173507 0)
(1.0005 0.00202146 0)
(1.00053 0.00236851 0)
(1.00042 0.00273421 0)
(0.999976 2.51109e-05 0)
(0.999961 0.000112486 0)
(0.999968 0.000274722 0)
(1.00003 4.49039e-05 0)
(1.00003 -0.00016326 0)
(0.999791 -1.56639e-05 0)
(0.999531 3.8867e-05 0)
(0.999447 9.85488e-05 0)
(0.999505 0.000240338 0)
(0.999513 0.000406242 0)
(0.999594 0.000553911 0)
(0.999702 0.000678445 0)
(0.999906 0.00089469 0)
(1.0002 0.00112407 0)
(1.00054 0.00127365 0)
(1.00064 0.00148905 0)
(1.00064 0.00178969 0)
(1.00063 0.00206831 0)
(1.00069 0.00237082 0)
(1.0006 0.00270321 0)
(0.999979 2.73388e-05 0)
(0.999969 9.14782e-05 0)
(0.99996 0.000250537 0)
(0.999989 0.000142917 0)
(1.00002 -0.000176236 0)
(0.999813 -7.45034e-05 0)
(0.99954 0.000123666 0)
(0.999458 0.000176686 0)
(0.999539 0.000251551 0)
(0.999555 0.000466657 0)
(0.999626 0.000672345 0)
(0.999743 0.000790097 0)
(0.99997 0.000964179 0)
(1.00027 0.00118252 0)
(1.0006 0.00135704 0)
(1.00074 0.00155844 0)
(1.00077 0.00183393 0)
(1.00076 0.00210692 0)
(1.00085 0.00237892 0)
(1.00078 0.00267549 0)
(0.99998 2.34479e-05 0)
(0.999977 9.59679e-05 0)
(0.999962 0.000195154 0)
(0.999953 0.000222483 0)
(0.999993 -0.000101048 0)
(0.999842 -0.000148771 0)
(0.999576 0.000129024 0)
(0.999468 0.000294194 0)
(0.999568 0.000326861 0)
(0.999615 0.000498112 0)
(0.999677 0.000749356 0)
(0.999784 0.000899497 0)
(1.00003 0.00104991 0)
(1.00034 0.00124794 0)
(1.00068 0.00142417 0)
(1.00084 0.00162108 0)
(1.00089 0.00188102 0)
(1.0009 0.00213553 0)
(1.001 0.00238623 0)
(1.00095 0.00264843 0)
(0.999983 1.86686e-05 0)
(0.999979 0.000109963 0)
(0.999968 0.000143649 0)
(0.999929 0.000242796 0)
(0.99995 1.65058e-05 0)
(0.999858 -0.000159907 0)
(0.999634 6.92438e-05 0)
(0.9995 0.000370237 0)
(0.999588 0.000470041 0)
(0.999669 0.000574673 0)
(0.999743 0.000795572 0)
(0.999838 0.000981835 0)
(1.00009 0.00112938 0)
(1.00041 0.00131034 0)
(1.00076 0.00148316 0)
(1.00095 0.00166549 0)
(1.00102 0.0019172 0)
(1.00103 0.00215756 0)
(1.00115 0.00237607 0)
(1.00112 0.00261309 0)
(0.999984 1.22119e-05 0)
(0.999978 0.000125727 0)
(0.999972 0.000118937 0)
(0.999918 0.000200447 0)
(0.999905 0.000147359 0)
(0.999851 -8.22629e-05 0)
(0.999698 1.29611e-05 0)
(0.999566 0.000361535 0)
(0.99962 0.000597362 0)
(0.99971 0.000707265 0)
(0.999807 0.000867201 0)
(0.9999 0.0010452 0)
(1.00016 0.0011943 0)
(1.00049 0.00135639 0)
(1.00084 0.00153427 0)
(1.00106 0.0017014 0)
(1.00116 0.00192581 0)
(1.00117 0.00216815 0)
(1.0013 0.00235759 0)
(1.00127 0.00256687 0)
(0.999986 1.05176e-05 0)
(0.999975 0.000129301 0)
(0.999965 0.000117978 0)
(0.999921 0.000154304 0)
(0.999877 0.0002164 0)
(0.999819 7.57422e-05 0)
(0.999741 3.12165e-05 0)
(0.999655 0.000308244 0)
(0.999684 0.000646178 0)
(0.999751 0.000845861 0)
(0.999858 0.000983179 0)
(0.99996 0.00112174 0)
(1.00022 0.00125816 0)
(1.00057 0.00139755 0)
(1.00093 0.00156436 0)
(1.00116 0.00172804 0)
(1.0013 0.00191734 0)
(1.00131 0.00215093 0)
(1.00143 0.00233672 0)
(1.00142 0.00251221 0)
(0.999986 1.22831e-05 0)
(0.999973 0.000121729 0)
(0.999957 0.000137641 0)
(0.999923 0.000121459 0)
(0.999872 0.000220689 0)
(0.999791 0.000228343 0)
(0.999751 0.000158708 0)
(0.999739 0.000288935 0)
(0.999785 0.000622129 0)
(0.999819 0.000921763 0)
(0.999903 0.00110372 0)
(1.00001 0.00122223 0)
(1.00028 0.00133223 0)
(1.00064 0.00144713 0)
(1.00102 0.0015824 0)
(1.00126 0.00173901 0)
(1.00143 0.00190827 0)
(1.00146 0.00210938 0)
(1.00157 0.00229551 0)
(1.00156 0.00244993 0)
(0.999987 1.7633e-05 0)
(0.999974 0.000101293 0)
(0.999943 0.000164673 0)
(0.999923 0.000121753 0)
(0.999887 0.000206813 0)
(0.999785 0.000327235 0)
(0.999743 0.00031228 0)
(0.99979 0.000355291 0)
(0.999893 0.000593685 0)
(0.999922 0.000922399 0)
(0.99997 0.00118147 0)
(1.00005 0.00132677 0)
(1.00032 0.00142081 0)
(1.00069 0.00150678 0)
(1.00109 0.00161642 0)
(1.00136 0.00174129 0)
(1.00156 0.00188832 0)
(1.0016 0.00206202 0)
(1.00171 0.0022229 0)
(1.00169 0.00237125 0)
(0.999986 2.63445e-05 0)
(0.999979 8.68911e-05 0)
(0.999939 0.000174332 0)
(0.999915 0.000152667 0)
(0.99991 0.000195171 0)
(0.999802 0.000365205 0)
(0.99974 0.000462286 0)
(0.999819 0.000479148 0)
(0.999983 0.000621764 0)
(1.00005 0.000903032 0)
(1.00007 0.00119748 0)
(1.00011 0.00139992 0)
(1.00036 0.0015093 0)
(1.00074 0.00157454 0)
(1.00116 0.00166169 0)
(1.00144 0.00175798 0)
(1.00167 0.00186011 0)
(1.00173 0.00201518 0)
(1.00184 0.00214112 0)
(1.00182 0.00226921 0)
(0.999987 3.09928e-05 0)
(0.999982 7.73405e-05 0)
(0.999936 0.000185138 0)
(0.99991 0.000191316 0)
(0.999932 0.000209327 0)
(0.99985 0.000376756 0)
(0.99976 0.00055946 0)
(0.999828 0.000618078 0)
(1.00005 0.000693563 0)
(1.00016 0.00090241 0)
(1.00019 0.00118444 0)
(1.0002 0.00142036 0)
(1.00041 0.00157042 0)
(1.00077 0.0016375 0)
(1.00121 0.00169951 0)
(1.0015 0.00178749 0)
(1.00176 0.00184865 0)
(1.00184 0.00196311 0)
(1.00195 0.00206734 0)
(1.00194 0.00215429 0)
(0.999986 3.83713e-05 0)
(0.999991 7.74318e-05 0)
(0.999946 0.000176469 0)
(0.999901 0.0002401 0)
(0.99995 0.000245023 0)
(0.999901 0.000387069 0)
(0.999805 0.000608323 0)
(0.999848 0.000730557 0)
(1.00008 0.000792807 0)
(1.00026 0.000933288 0)
(1.00032 0.00117566 0)
(1.00031 0.00141622 0)
(1.00047 0.00158955 0)
(1.00081 0.00168103 0)
(1.00125 0.00172574 0)
(1.00155 0.00180218 0)
(1.00181 0.00185687 0)
(1.00193 0.00191533 0)
(1.00203 0.001998 0)
(1.00204 0.00204923 0)
(0.999989 4.09138e-05 0)
(0.999991 8.83133e-05 0)
(0.999959 0.000178381 0)
(0.999909 0.000266949 0)
(0.999961 0.000300054 0)
(0.999962 0.000400988 0)
(0.99987 0.000637524 0)
(0.999878 0.000809972 0)
(1.00011 0.000885341 0)
(1.00033 0.000984978 0)
(1.00044 0.00117444 0)
(1.00043 0.00140399 0)
(1.00056 0.00158256 0)
(1.00085 0.00169015 0)
(1.00128 0.00173595 0)
(1.0016 0.00179076 0)
(1.00185 0.001854 0)
(1.00197 0.00188597 0)
(1.00208 0.00193346 0)
(1.00209 0.00196476 0)
(0.999988 4.44142e-05 0)
(1 9.69309e-05 0)
(0.999976 0.000184099 0)
(0.999917 0.000298182 0)
(0.999975 0.000349174 0)
(1.00001 0.00043596 0)
(0.999953 0.000644039 0)
(0.999931 0.000861512 0)
(1.00014 0.000963205 0)
(1.00039 0.00103736 0)
(1.00054 0.00118306 0)
(1.00055 0.00138539 0)
(1.00065 0.00156688 0)
(1.0009 0.00167374 0)
(1.00131 0.00172189 0)
(1.00163 0.00176009 0)
(1.00188 0.00181415 0)
(1.00199 0.00185091 0)
(1.0021 0.00187557 0)
(1.00211 0.00188715 0)
(0.999991 4.71296e-05 0)
(0.999998 0.000118118 0)
(0.999997 0.000183772 0)
(0.999942 0.000320406 0)
(0.999988 0.000401944 0)
(1.00006 0.000472106 0)
(1.00004 0.000659564 0)
(1 0.000880218 0)
(1.00017 0.00102067 0)
(1.00042 0.00108684 0)
(1.00063 0.00118812 0)
(1.00066 0.00135872 0)
(1.00074 0.00153499 0)
(1.00094 0.00164813 0)
(1.00133 0.00168845 0)
(1.00166 0.00171451 0)
(1.00191 0.00175074 0)
(1.00202 0.00178482 0)
(1.0021 0.00181347 0)
(1.00209 0.00180939 0)
(0.999993 4.60705e-05 0)
(1 0.000134088 0)
(1.00002 0.00020386 0)
(0.999971 0.000331445 0)
(1.00001 0.000446078 0)
(1.0001 0.000515944 0)
(1.00012 0.000664092 0)
(1.00009 0.00088638 0)
(1.00022 0.00104515 0)
(1.00045 0.00112598 0)
(1.00069 0.0012018 0)
(1.00077 0.00132601 0)
(1.00084 0.0014863 0)
(1.00099 0.00160689 0)
(1.00133 0.0016494 0)
(1.00166 0.00165437 0)
(1.00193 0.0016776 0)
(1.00204 0.00169541 0)
(1.0021 0.00172625 0)
(1.00206 0.00172449 0)
(0.999995 4.85236e-05 0)
(1 0.00015155 0)
(1.00003 0.000216265 0)
(1.00001 0.000342167 0)
(1.00003 0.000476507 0)
(1.00013 0.000557608 0)
(1.0002 0.000677789 0)
(1.00018 0.000870099 0)
(1.00027 0.00105197 0)
(1.00048 0.00114164 0)
(1.00073 0.00120841 0)
(1.00085 0.00129971 0)
(1.00095 0.00142376 0)
(1.00105 0.00154171 0)
(1.00133 0.00160329 0)
(1.00164 0.00159122 0)
(1.00192 0.00159745 0)
(1.00204 0.00160182 0)
(1.0021 0.00161558 0)
(1.00204 0.0016247 0)
(0.999997 4.80408e-05 0)
(1 0.000164008 0)
(1.00004 0.000240977 0)
(1.00004 0.000346853 0)
(1.00007 0.000493627 0)
(1.00016 0.00058962 0)
(1.00026 0.000690378 0)
(1.00028 0.000849404 0)
(1.00035 0.00102818 0)
(1.00051 0.00114176 0)
(1.00076 0.00120047 0)
(1.00091 0.0012708 0)
(1.00102 0.00136667 0)
(1.00112 0.00145649 0)
(1.00133 0.00153365 0)
(1.0016 0.00153049 0)
(1.00189 0.00151028 0)
(1.00201 0.00150802 0)
(1.00208 0.00149704 0)
(1.00201 0.00150682 0)
(0.999998 5.15698e-05 0)
(1.00001 0.000168995 0)
(1.00005 0.000259492 0)
(1.00008 0.000354474 0)
(1.00011 0.000493072 0)
(1.00019 0.000607308 0)
(1.00031 0.000700269 0)
(1.00036 0.000828741 0)
(1.00043 0.000985897 0)
(1.00055 0.00111092 0)
(1.00078 0.00118112 0)
(1.00095 0.00122937 0)
(1.00108 0.0013076 0)
(1.00118 0.00137276 0)
(1.00135 0.00143453 0)
(1.00154 0.00145841 0)
(1.00182 0.0014226 0)
(1.00195 0.00140716 0)
(1.00204 0.00138479 0)
(1.00197 0.00137573 0)
(0.999999 5.35681e-05 0)
(1.00001 0.000171445 0)
(1.00006 0.00027035 0)
(1.0001 0.000361553 0)
(1.00015 0.000484656 0)
(1.00023 0.000602883 0)
(1.00035 0.000698377 0)
(1.00042 0.000803112 0)
(1.00051 0.000936158 0)
(1.00061 0.00105476 0)
(1.0008 0.0011365 0)
(1.00096 0.00118017 0)
(1.00111 0.00123453 0)
(1.00121 0.00129012 0)
(1.00137 0.00132451 0)
(1.0015 0.00135577 0)
(1.00173 0.00133252 0)
(1.00187 0.00129758 0)
(1.00195 0.00127453 0)
(1.00191 0.00124583 0)
(1 5.50661e-05 0)
(1.00002 0.000169952 0)
(1.00007 0.000272462 0)
(1.00012 0.000362103 0)
(1.00019 0.000469627 0)
(1.00026 0.000582321 0)
(1.00038 0.000678483 0)
(1.00047 0.000770226 0)
(1.00057 0.000877951 0)
(1.00066 0.000982469 0)
(1.00082 0.00106502 0)
(1.00097 0.00111272 0)
(1.00113 0.00115084 0)
(1.00122 0.00119437 0)
(1.00137 0.00121631 0)
(1.00147 0.00123179 0)
(1.00164 0.00122552 0)
(1.00176 0.00118406 0)
(1.00185 0.00115707 0)
(1.00183 0.00112347 0)
(1 5.45619e-05 0)
(1.00002 0.000165463 0)
(1.00008 0.000264242 0)
(1.00014 0.000353003 0)
(1.00022 0.000447507 0)
(1.0003 0.000547651 0)
(1.00041 0.000639614 0)
(1.00051 0.000721882 0)
(1.00062 0.000810681 0)
(1.00071 0.000897574 0)
(1.00085 0.000972277 0)
(1.00098 0.00102217 0)
(1.00113 0.00105294 0)
(1.00121 0.00108414 0)
(1.00134 0.00110228 0)
(1.00143 0.00110312 0)
(1.00155 0.0010994 0)
(1.00165 0.00106595 0)
(1.00173 0.00103397 0)
(1.00172 0.00100308 0)
(1 5.18347e-05 0)
(1.00003 0.000156182 0)
(1.00009 0.000247733 0)
(1.00015 0.000330898 0)
(1.00024 0.000414763 0)
(1.00033 0.000500409 0)
(1.00044 0.000583247 0)
(1.00054 0.000656547 0)
(1.00066 0.000730429 0)
(1.00075 0.000800591 0)
(1.00088 0.000861904 0)
(1.00098 0.0009077 0)
(1.00112 0.000935397 0)
(1.0012 0.000956577 0)
(1.0013 0.000974407 0)
(1.00137 0.000972966 0)
(1.00147 0.00096826 0)
(1.00153 0.000946482 0)
(1.00161 0.000914695 0)
(1.0016 0.000886494 0)
(1 4.6935e-05 0)
(1.00003 0.000141017 0)
(1.00009 0.000222249 0)
(1.00017 0.000295917 0)
(1.00026 0.000368455 0)
(1.00035 0.000440166 0)
(1.00046 0.000509748 0)
(1.00057 0.000572729 0)
(1.00068 0.000632884 0)
(1.00077 0.000689426 0)
(1.00089 0.000737982 0)
(1.00098 0.000774866 0)
(1.00111 0.000798151 0)
(1.00118 0.00081006 0)
(1.00128 0.000820574 0)
(1.00132 0.000820212 0)
(1.0014 0.000814829 0)
(1.00143 0.00080483 0)
(1.00149 0.000786623 0)
(1.00148 0.000771592 0)
(1 4.02985e-05 0)
(1.00003 0.000120042 0)
(1.0001 0.000188196 0)
(1.00018 0.0002486 0)
(1.00027 0.000307514 0)
(1.00037 0.000364134 0)
(1.00048 0.000418384 0)
(1.00058 0.000467962 0)
(1.0007 0.000514428 0)
(1.00079 0.000557693 0)
(1.0009 0.000595487 0)
(1.00098 0.00062454 0)
(1.00109 0.000644681 0)
(1.00115 0.000654034 0)
(1.00123 0.000658689 0)
(1.00127 0.000657659 0)
(1.00135 0.000649651 0)
(1.00137 0.00064017 0)
(1.00143 0.000626852 0)
(1.00144 0.000614523 0)
(1 3.28188e-05 0)
(1.00003 9.77285e-05 0)
(1.0001 0.000154891 0)
(1.00018 0.000204885 0)
(1.00028 0.000253586 0)
(1.00038 0.000300438 0)
(1.00049 0.00034563 0)
(1.00059 0.000386874 0)
(1.00071 0.000425783 0)
(1.0008 0.000461661 0)
(1.00091 0.000494079 0)
(1.00098 0.000520263 0)
(1.00108 0.000540992 0)
(1.00112 0.000554375 0)
(1.0012 0.000562443 0)
(1.00122 0.000565405 0)
(1.00127 0.000561717 0)
(1.00128 0.000553361 0)
(1.00133 0.000541658 0)
(1.00133 0.000528404 0)
(1 1.44396e-05 0)
(1.00004 4.37285e-05 0)
(1.00011 7.02757e-05 0)
(1.00019 9.3902e-05 0)
(1.00029 0.000116949 0)
(1.00039 0.000139627 0)
(1.00051 0.000161593 0)
(1.00061 0.000182071 0)
(1.00073 0.00020137 0)
(1.00082 0.000219187 0)
(1.00092 0.000235298 0)
(1.00099 0.000248644 0)
(1.00108 0.000259244 0)
(1.00112 0.000266822 0)
(1.00118 0.000271731 0)
(1.0012 0.000274693 0)
(1.00124 0.00027564 0)
(1.00124 0.000274747 0)
(1.00128 0.000273092 0)
(1.00129 0.000270751 0)
(0.983793 0.00198964 0)
(0.959517 0.00322174 0)
(0.935213 0.00357241 0)
(0.910486 0.00354085 0)
(0.885292 0.00347032 0)
(0.859655 0.00344978 0)
(0.833755 0.00346082 0)
(0.807488 0.0034698 0)
(0.78093 0.00347182 0)
(0.753923 0.0034622 0)
(0.726518 0.00345186 0)
(0.698527 0.00343346 0)
(0.670091 0.00339908 0)
(0.641175 0.00336426 0)
(0.611642 0.00333353 0)
(0.581357 0.00327901 0)
(0.550543 0.00316374 0)
(0.519612 0.00306103 0)
(0.488202 0.00297385 0)
(0.456586 0.0028516 0)
(0.425193 0.00269027 0)
(0.394194 0.00253122 0)
(0.363702 0.00237538 0)
(0.334365 0.00205423 0)
(0.307429 0.00160741 0)
(0.283451 0.00114153 0)
(0.263333 0.000580332 0)
(0.247898 7.39617e-05 0)
(0.236768 -0.000265223 0)
(0.22896 -0.000435417 0)
(0.223508 -0.000507346 0)
(0.219607 -0.000496578 0)
(0.216668 -0.000455035 0)
(0.214305 -0.000402163 0)
(0.212211 -0.00034306 0)
(0.210114 -0.000288026 0)
(0.207939 -0.000243253 0)
(0.205769 -0.00021072 0)
(0.203616 -0.000165576 0)
(0.201367 -0.000116193 0)
(0.198939 -0.00010354 0)
(0.196381 -9.4985e-05 0)
(0.193822 -5.97192e-05 0)
(0.191378 -4.14277e-05 0)
(0.189007 -3.76159e-05 0)
(0.186535 -1.80628e-05 0)
(0.183908 -1.0649e-05 0)
(0.181424 -2.00582e-05 0)
(0.1793 -1.94635e-05 0)
(0.177341 -4.59355e-06 0)
(0.175334 5.9653e-06 0)
(0.173403 1.93618e-06 0)
(0.171735 -7.36829e-06 0)
(0.170251 -1.93429e-06 0)
(0.168809 6.23728e-06 0)
(0.16742 4.68786e-06 0)
(0.166194 5.03527e-06 0)
(0.165079 9.7456e-06 0)
(0.164073 9.6413e-06 0)
(0.16317 8.41605e-06 0)
(0.162402 6.95072e-06 0)
(0.161746 5.42974e-06 0)
(0.161205 8.18467e-06 0)
(0.160698 8.81081e-06 0)
(0.160292 4.55248e-06 0)
(0.159967 4.79323e-06 0)
(0.159688 8.3391e-06 0)
(0.159417 6.29089e-06 0)
(0.159262 2.51377e-06 0)
(0.159147 3.77494e-06 0)
(0.159053 5.05414e-06 0)
(0.158945 3.263e-06 0)
(0.158922 1.47866e-06 0)
(0.158891 1.52667e-06 0)
(0.15889 1.51224e-06 0)
(0.158853 6.10906e-07 0)
(0.158873 1.05054e-07 0)
(0.158859 -2.24333e-07 0)
(0.158893 -1.5866e-07 0)
(0.158882 -4.30559e-07 0)
(0.158927 -4.44347e-07 0)
(0.158919 -3.54043e-07 0)
(0.158972 -5.74377e-07 0)
(0.158958 -3.43854e-07 0)
(0.159016 -5.86156e-07 0)
(0.158992 -3.47302e-07 0)
(0.159054 -3.43385e-07 0)
(0.159015 -2.46445e-07 0)
(0.159081 -8.43597e-08 0)
(0.159026 -6.64506e-08 0)
(0.159097 -2.7445e-09 0)
(0.159024 1.56217e-07 0)
(0.159104 -1.47422e-08 0)
(0.159011 2.45855e-07 0)
(0.159099 1.03487e-07 0)
(0.158982 2.70009e-07 0)
(0.159081 3.52937e-07 0)
(0.158915 4.49336e-07 0)
(0.159045 1.71498e-06 0)
(0.158669 5.53525e-06 0)
(0.996502 0.00407303 0)
(0.995392 0.00597146 0)
(0.994196 0.00661057 0)
(0.99257 0.00655485 0)
(0.990541 0.00639719 0)
(0.987825 0.0063328 0)
(0.984685 0.00635127 0)
(0.980925 0.00638793 0)
(0.9766 0.00641174 0)
(0.971656 0.006434 0)
(0.965918 0.00645117 0)
(0.959506 0.00648974 0)
(0.952149 0.00651727 0)
(0.944093 0.00656764 0)
(0.935017 0.00665366 0)
(0.92492 0.00674972 0)
(0.913867 0.00681025 0)
(0.901739 0.00682825 0)
(0.888721 0.00687389 0)
(0.874367 0.00685904 0)
(0.859237 0.0067752 0)
(0.843128 0.00665295 0)
(0.826182 0.00650283 0)
(0.808705 0.00623605 0)
(0.790974 0.00574767 0)
(0.773635 0.00511771 0)
(0.756941 0.00435187 0)
(0.741534 0.00352325 0)
(0.727654 0.00277556 0)
(0.714824 0.00215855 0)
(0.703103 0.00169976 0)
(0.69207 0.00139834 0)
(0.681531 0.00117455 0)
(0.671511 0.00100565 0)
(0.661835 0.000915423 0)
(0.65221 0.00086811 0)
(0.642681 0.000828547 0)
(0.633509 0.000763496 0)
(0.624382 0.000698995 0)
(0.615393 0.000691428 0)
(0.606867 0.000707346 0)
(0.598028 0.000683875 0)
(0.588968 0.000635608 0)
(0.580721 0.000568408 0)
(0.572793 0.00053355 0)
(0.564681 0.000570198 0)
(0.556712 0.000562475 0)
(0.549032 0.000471924 0)
(0.541731 0.000404675 0)
(0.534724 0.000388302 0)
(0.527922 0.00037224 0)
(0.521683 0.000327783 0)
(0.515936 0.000273353 0)
(0.510323 0.000256638 0)
(0.505093 0.00024705 0)
(0.50023 0.000208354 0)
(0.49568 0.000177194 0)
(0.491458 0.000159875 0)
(0.487658 0.000132952 0)
(0.484171 0.000114045 0)
(0.481147 9.88441e-05 0)
(0.478367 7.49755e-05 0)
(0.475913 6.39491e-05 0)
(0.473777 5.8346e-05 0)
(0.471975 4.07408e-05 0)
(0.470262 3.01374e-05 0)
(0.468832 3.11119e-05 0)
(0.467598 2.18064e-05 0)
(0.466624 8.31118e-06 0)
(0.465712 7.93306e-06 0)
(0.465047 9.42573e-06 0)
(0.464435 3.93827e-06 0)
(0.464057 -9.43213e-07 0)
(0.463655 1.40173e-07 0)
(0.46345 1.36645e-06 0)
(0.463169 -1.17872e-07 0)
(0.463081 -6.65422e-07 0)
(0.462897 -1.18893e-06 0)
(0.462897 -8.27976e-07 0)
(0.462783 -1.49651e-06 0)
(0.462853 -1.70845e-06 0)
(0.462782 -1.49002e-06 0)
(0.462911 -1.8863e-06 0)
(0.462851 -1.06927e-06 0)
(0.463028 -1.57036e-06 0)
(0.46295 -8.60066e-07 0)
(0.463156 -8.61646e-07 0)
(0.463043 -8.74647e-07 0)
(0.463259 -2.81672e-07 0)
(0.463107 -6.3086e-07 0)
(0.463329 -1.43304e-07 0)
(0.463131 3.32606e-09 0)
(0.463372 -5.28869e-08 0)
(0.463119 5.70976e-07 0)
(0.463386 7.01984e-07 0)
(0.463078 7.36894e-07 0)
(0.463369 1.80077e-06 0)
(0.462993 2.01756e-06 0)
(0.463305 3.30063e-06 0)
(0.462775 1.70864e-05 0)
(0.997165 0.00346764 0)
(0.996488 0.00471226 0)
(0.996246 0.00541237 0)
(0.996175 0.00552944 0)
(0.996268 0.00545378 0)
(0.996262 0.00543096 0)
(0.996303 0.0054944 0)
(0.99631 0.0056314 0)
(0.996239 0.00577252 0)
(0.996136 0.00594375 0)
(0.9958 0.00611183 0)
(0.995356 0.00629959 0)
(0.99464 0.00648307 0)
(0.993739 0.00666225 0)
(0.992592 0.0068972 0)
(0.991047 0.00711254 0)
(0.989308 0.0072967 0)
(0.987058 0.00741124 0)
(0.984534 0.00756393 0)
(0.981375 0.00768945 0)
(0.977831 0.00769796 0)
(0.973749 0.00769298 0)
(0.969174 0.00763232 0)
(0.964166 0.00745462 0)
(0.95879 0.00704226 0)
(0.9531 0.00640619 0)
(0.94729 0.00565796 0)
(0.941424 0.00477758 0)
(0.935765 0.00393961 0)
(0.930131 0.00325334 0)
(0.92463 0.00272773 0)
(0.919162 0.00240745 0)
(0.913734 0.00219634 0)
(0.908295 0.00203539 0)
(0.902863 0.00197452 0)
(0.897305 0.00196889 0)
(0.891684 0.0019418 0)
(0.886005 0.00186609 0)
(0.880256 0.00182537 0)
(0.874327 0.0018134 0)
(0.868493 0.00179344 0)
(0.862501 0.0018027 0)
(0.856035 0.00177039 0)
(0.849826 0.00163257 0)
(0.843715 0.0015589 0)
(0.837232 0.00160428 0)
(0.830874 0.00158094 0)
(0.824517 0.00144071 0)
(0.818069 0.00132917 0)
(0.811771 0.00129417 0)
(0.80537 0.00124831 0)
(0.799109 0.0011297 0)
(0.793201 0.0010079 0)
(0.787156 0.000956895 0)
(0.781429 0.000908512 0)
(0.776044 0.000822627 0)
(0.770735 0.000753785 0)
(0.765498 0.000697968 0)
(0.760583 0.000622386 0)
(0.755675 0.000548207 0)
(0.751239 0.000479808 0)
(0.747086 0.000413974 0)
(0.743237 0.000366502 0)
(0.739641 0.000320027 0)
(0.736518 0.00026878 0)
(0.733431 0.000236513 0)
(0.730664 0.00021239 0)
(0.728112 0.000170116 0)
(0.725911 0.000130678 0)
(0.723746 0.000113147 0)
(0.721975 9.58692e-05 0)
(0.720281 6.98839e-05 0)
(0.718966 4.97489e-05 0)
(0.717637 4.06614e-05 0)
(0.716699 3.30359e-05 0)
(0.715695 2.2922e-05 0)
(0.715053 1.61338e-05 0)
(0.714319 1.03652e-05 0)
(0.713928 6.68103e-06 0)
(0.713424 2.14391e-06 0)
(0.713237 -9.87805e-07 0)
(0.712899 -3.36212e-06 0)
(0.712895 -5.59496e-06 0)
(0.712666 -6.20365e-06 0)
(0.712828 -7.23466e-06 0)
(0.712661 -6.74388e-06 0)
(0.712942 -6.02324e-06 0)
(0.7128 -5.44867e-06 0)
(0.713126 -3.57353e-06 0)
(0.71298 -3.15216e-06 0)
(0.713303 -1.62866e-06 0)
(0.713115 -9.14755e-07 0)
(0.713435 -4.88475e-07 0)
(0.713178 6.81606e-07 0)
(0.7135 9.09233e-07 0)
(0.71319 1.62805e-06 0)
(0.713493 2.45971e-06 0)
(0.713156 4.85049e-06 0)
(0.713425 4.18671e-06 0)
(0.713003 2.67352e-05 0)
(0.997763 0.00332001 0)
(0.997106 0.00441217 0)
(0.996778 0.0052476 0)
(0.99671 0.00561016 0)
(0.996854 0.00568473 0)
(0.997027 0.00571623 0)
(0.997291 0.0057664 0)
(0.997591 0.0058745 0)
(0.997929 0.00598714 0)
(0.998279 0.00614186 0)
(0.998607 0.00629431 0)
(0.998877 0.00647567 0)
(0.999152 0.00664534 0)
(0.999361 0.00681618 0)
(0.999616 0.00703768 0)
(0.999725 0.00724038 0)
(0.999936 0.0074411 0)
(1.00002 0.00757328 0)
(1.00013 0.00776331 0)
(1.00006 0.0079468 0)
(0.999972 0.0079912 0)
(0.999733 0.00802549 0)
(0.999412 0.0079732 0)
(0.998918 0.00780945 0)
(0.998384 0.00739701 0)
(0.997523 0.00676332 0)
(0.996591 0.00604607 0)
(0.995344 0.00520579 0)
(0.994004 0.00439826 0)
(0.992439 0.00371656 0)
(0.990728 0.00317838 0)
(0.988892 0.00285801 0)
(0.9871 0.00264298 0)
(0.985166 0.00249741 0)
(0.983321 0.00245847 0)
(0.981351 0.00245023 0)
(0.979436 0.00242175 0)
(0.977421 0.00233954 0)
(0.975282 0.00227302 0)
(0.973047 0.00226231 0)
(0.970931 0.00225006 0)
(0.968647 0.00226695 0)
(0.966156 0.00225365 0)
(0.963684 0.00208986 0)
(0.961072 0.00200131 0)
(0.958231 0.0020796 0)
(0.955598 0.00206459 0)
(0.952807 0.00191386 0)
(0.949785 0.00179468 0)
(0.9468 0.00176169 0)
(0.943795 0.00173526 0)
(0.940685 0.00160801 0)
(0.937614 0.00146627 0)
(0.934283 0.00142201 0)
(0.931133 0.00135888 0)
(0.928005 0.0012384 0)
(0.924891 0.00116042 0)
(0.921759 0.00110037 0)
(0.918865 0.00101563 0)
(0.915808 0.000937627 0)
(0.913006 0.000851958 0)
(0.910138 0.000759173 0)
(0.907351 0.000691806 0)
(0.904546 0.000619189 0)
(0.902042 0.00053605 0)
(0.899492 0.000484313 0)
(0.897286 0.000446646 0)
(0.895177 0.000384414 0)
(0.89331 0.000326872 0)
(0.891346 0.000296404 0)
(0.889701 0.000263674 0)
(0.887973 0.000218041 0)
(0.886545 0.000180395 0)
(0.885009 0.000156085 0)
(0.883851 0.000133665 0)
(0.882574 0.000109106 0)
(0.881655 8.92547e-05 0)
(0.880628 7.1669e-05 0)
(0.879946 5.69947e-05 0)
(0.879157 4.23057e-05 0)
(0.878687 3.08752e-05 0)
(0.878086 2.07086e-05 0)
(0.877825 1.19459e-05 0)
(0.877373 4.92349e-06 0)
(0.877317 -1.32604e-06 0)
(0.876986 -5.15625e-06 0)
(0.877097 -8.31464e-06 0)
(0.876872 -9.86103e-06 0)
(0.87709 -9.92783e-06 0)
(0.876956 -9.60026e-06 0)
(0.877235 -7.90457e-06 0)
(0.877133 -5.86715e-06 0)
(0.877438 -4.60721e-06 0)
(0.8773 -1.42186e-06 0)
(0.87759 -1.10624e-06 0)
(0.877405 1.88247e-06 0)
(0.877642 1.85707e-06 0)
(0.877436 7.16299e-06 0)
(0.877616 4.47823e-06 0)
(0.877337 3.21385e-05 0)
(0.998138 0.00331199 0)
(0.997499 0.00429089 0)
(0.99709 0.00511084 0)
(0.996952 0.00556698 0)
(0.997057 0.00570911 0)
(0.997241 0.00576895 0)
(0.997537 0.00579857 0)
(0.997853 0.00585735 0)
(0.998247 0.00593201 0)