/*--------------------------------*- C++ -*----------------------------------*\
| =========                 |                                                 |
| \\      /  F ield         | OpenFOAM: The Open Source CFD Toolbox           |
|  \\    /   O peration     | Version:  v1906                                 |
|   \\  /    A nd           | Web:      www.OpenFOAM.com                      |
|    \\/     M anipulation  |                                                 |
\*---------------------------------------------------------------------------*/
FoamFile
{
    version     2.0;
    format      ascii;
    class       volScalarField;
    location    "500";
    object      alphat;
}
// * * * * * * * * * * * * * * * * * * * * * * * * * * * * * * * * * * * * * //

dimensions      [1 -1 -1 0 0 0 0];


internalField   nonuniform List<scalar> 
2000
(
0.000512609
0.000370338
0.000316004
0.000288522
0.000270646
0.000256123
0.000243122
0.00023076
0.000218509
0.000206052
0.000193477
0.000178996
0.000159331
0.000127162
9.72868e-05
6.77318e-05
9.40255e-05
0.000119582
0.000138259
0.000151487
0.000160233
0.000165543
0.000166793
0.000165617
0.000160534
0.000150821
0.000134663
0.000108731
8.83042e-05
0.000101923
0.000131735
0.000161146
0.000182196
0.000198443
0.000210545
0.000219681
0.000226572
0.000231697
0.000235474
0.000238277
0.000240541
0.000242496
0.000243969
0.000245014
0.000245765
0.000246341
0.000246831
0.000247446
0.000248189
0.000249702
0.0100591
0.00431551
0.00340903
0.00307325
0.00285391
0.00267368
0.00251537
0.00237203
0.00223781
0.00210667
0.0019668
0.0018092
0.00158774
0.0010908
0.000201492
0.000135169
0.000586557
0.000827656
0.00106479
0.00127931
0.00145586
0.00158949
0.00165044
0.00167203
0.0016334
0.00150798
0.00122158
0.000742178
0.000134193
0.000176465
0.000907872
0.00135177
0.00170061
0.00195903
0.00215869
0.00231485
0.00243702
0.0025316
0.00260395
0.0026585
0.00269625
0.00271946
0.00273381
0.00274222
0.00274678
0.00274902
0.00275073
0.00275263
0.00275817
0.00276126
0.0365133
0.0136679
0.0093901
0.00780703
0.00693642
0.00632893
0.00585133
0.00544112
0.00506278
0.00468712
0.00427728
0.00378015
0.00306972
0.00185287
0.000249092
0.000177635
0.00122417
0.00179688
0.00227954
0.00269297
0.00302128
0.00326512
0.00336511
0.00334582
0.00315388
0.00272759
0.00204376
0.00104848
0.000155033
0.0002205
0.00170306
0.00269501
0.00345249
0.00405835
0.00455029
0.00494932
0.00527125
0.0055285
0.00573173
0.00588957
0.00600758
0.00609196
0.00615158
0.00619283
0.00622079
0.0062395
0.00625265
0.00626264
0.00627217
0.00627508
0.0598988
0.0265092
0.0173907
0.0137398
0.0117857
0.0104948
0.0095356
0.0087386
0.00801654
0.00730378
0.00652972
0.00559522
0.0043261
0.002447
0.000284331
0.000206014
0.00168433
0.00265129
0.00338316
0.00397832
0.00443782
0.00474606
0.00484904
0.00474452
0.00437515
0.00368162
0.0026194
0.00118459
0.000178828
0.000250195
0.00224245
0.00379589
0.00499498
0.00597962
0.00680115
0.00748524
0.008051
0.00851444
0.00888988
0.00918961
0.00942351
0.00960154
0.00973488
0.00983295
0.00990374
0.00995387
0.00998913
0.0100135
0.0100293
0.0100321
0.0739954
0.0394262
0.0263565
0.0204224
0.0171411
0.0150055
0.0134325
0.0121534
0.0110081
0.00988634
0.00868021
0.00725346
0.00541179
0.00292896
0.000313449
0.000227068
0.00202392
0.00337738
0.00434148
0.00510459
0.00567604
0.00603513
0.00612931
0.00594046
0.00540511
0.00446948
0.00310169
0.00135251
0.000209994
0.00027133
0.00259207
0.00465545
0.00629423
0.00767109
0.00884375
0.00984071
0.0106818
0.0113845
0.0119651
0.0124386
0.0128182
0.0131169
0.0133482
0.013524
0.0136549
0.0137505
0.0138178
0.0138627
0.0138878
0.013891
0.0823251
0.0505382
0.035264
0.0273755
0.0227602
0.019705
0.017452
0.0156217
0.0139938
0.0124087
0.0107234
0.00877558
0.00637301
0.00332766
0.000337449
0.000243475
0.00228347
0.00396332
0.00516738
0.00608812
0.00676342
0.00717326
0.00725799
0.00699739
0.00632359
0.00519001
0.00358258
0.00159533
0.000242481
0.000287377
0.00283692
0.00531346
0.00736996
0.00913851
0.0106745
0.0120042
0.013145
0.0141135
0.0149266
0.0156008
0.0161516
0.0165943
0.0169448
0.0172168
0.0174235
0.0175765
0.0176852
0.0177569
0.0177948
0.0177987
0.0875521
0.0594783
0.0434575
0.0341833
0.0284004
0.0244508
0.0214969
0.0190839
0.0169348
0.0148501
0.0126569
0.0101778
0.00722542
0.00366909
0.000357596
0.00025694
0.00248916
0.00443555
0.00586033
0.0069416
0.00772578
0.00819383
0.00828453
0.00797157
0.00718789
0.00589301
0.00408718
0.00188445
0.000271564
0.000299336
0.00299627
0.00581248
0.00825084
0.0104015
0.0123059
0.0139813
0.0154397
0.0166948
0.0177625
0.0186596
0.0194032
0.0200101
0.0204975
0.0208817
0.0211776
0.021399
0.0215572
0.0216613
0.0217155
0.021721
0.0910519
0.0665076
0.050655
0.0405599
0.0338599
0.0291101
0.0254809
0.0224813
0.0197956
0.0171932
0.0144792
0.011469
0.00799014
0.00396588
0.000375061
0.000268148
0.00264167
0.00481414
0.0064448
0.00768843
0.00859058
0.00912969
0.00924526
0.00890072
0.00803161
0.0066003
0.00461505
0.00219613
0.000297408
0.000309727
0.00308633
0.00618597
0.00897026
0.0114869
0.0137572
0.0157846
0.0175721
0.0191285
0.0204672
0.0216044
0.0225576
0.0233447
0.0239841
0.0244936
0.0248901
0.0251891
0.025404
0.0255454
0.0256189
0.0256269
0.0935238
0.0720196
0.0568163
0.0463507
0.0389957
0.0335758
0.0293293
0.0257646
0.0225469
0.0194256
0.0161922
0.0126618
0.00868185
0.00422672
0.000390774
0.000277401
0.00275072
0.00511515
0.00693849
0.0083489
0.00938124
0.0100071
0.0101667
0.00981002
0.00887507
0.00732248
0.00516481
0.00252789
0.000321078
0.000318424
0.0031344
0.00646474
0.00955817
0.0124224
0.0150511
0.0174308
0.019552
0.0214174
0.0230371
0.0244258
0.0256005
0.0265796
0.0273821
0.0280271
0.028533
0.028917
0.0291942
0.0293769
0.0294721
0.0294833
0.0953426
0.0763683
0.0620206
0.0515005
0.0437224
0.0377717
0.0329848
0.0288958
0.0251679
0.0215417
0.0178029
0.013771
0.0093158
0.00446031
0.000405338
0.000285415
0.00282605
0.00535174
0.00735799
0.00894216
0.0101185
0.0108478
0.0110683
0.0107173
0.00973249
0.00806651
0.00573301
0.00286702
0.000343156
0.00032571
0.00316024
0.00667406
0.0100445
0.0132382
0.0162155
0.0189402
0.0213918
0.0235662
0.0254696
0.0271146
0.028517
0.0296949
0.0306675
0.0314546
0.0320758
0.0325499
0.0328934
0.0331202
0.0332389
0.0332535
0.0967229
0.0798308
0.0663897
0.0560168
0.0480013
0.0416514
0.0364089
0.0318491
0.0276469
0.0235434
0.0193241
0.0148159
0.00991021
0.00467742
0.000419147
0.000291708
0.00286858
0.00553276
0.00771941
0.00948753
0.0108217
0.0116704
0.011966
0.0116368
0.0106164
0.00884091
0.00632056
0.00319931
0.00036461
0.000332053
0.00317101
0.00683274
0.010459
0.0139676
0.0172791
0.0203355
0.0231061
0.0255808
0.0277624
0.029661
0.0312907
0.0326685
0.0338133
0.0347451
0.0354845
0.0360511
0.036463
0.0367356
0.0368784
0.0368965
0.0977951
0.0826134
0.070049
0.0599402
0.0518265
0.0451924
0.0395792
0.0346104
0.0299811
0.0254396
0.0207753
0.0158219
0.0104889
0.00489133
0.000432709
0.000297261
0.00287501
0.00566702
0.00804305
0.0100061
0.0115106
0.0124908
0.0128742
0.0125818
0.0115383
0.00965945
0.00693949
0.00352383
0.000387493
0.00033803
0.00316514
0.00695731
0.0108357
0.0146493
0.0182765
0.0216427
0.0247107
0.0274674
0.0299128
0.0320542
0.0339037
0.0354764
0.0367902
0.037865
0.0387215
0.0393804
0.0398608
0.0401791
0.0403462
0.0403676
0.0986419
0.0848671
0.0731104
0.0633243
0.0552113
0.0483895
0.0424865
0.0371749
0.0321747
0.027246
0.0221834
0.0168239
0.0110861
0.00512245
0.000446711
0.000303044
0.00284075
0.00577286
0.00835625
0.0105265
0.0122072
0.0133252
0.0138057
0.0135643
0.0125124
0.0105425
0.00761499
0.00386686
0.000411002
0.00034482
0.00313679
0.00707298
0.0112217
0.0153319
0.0192474
0.0228897
0.0262219
0.0292316
0.0319167
0.0342819
0.036336
0.0380921
0.0395663
0.0407776
0.0417467
0.0424945
0.0430412
0.0434038
0.0435943
0.0436186
0.0993183
0.0867012
0.0756672
0.0662241
0.0581788
0.0512476
0.0451298
0.0395438
0.0342365
0.0289824
0.0235817
0.0178695
0.0117556
0.00540541
0.000462307
0.00030897
0.00279329
0.00588949
0.00870297
0.0110851
0.0129394
0.0141902
0.0147716
0.0145946
0.0135543
0.0115192
0.00838887
0.00425914
0.000438081
0.000358265
0.00308382
0.00723512
0.0116912
0.016078
0.0202384
0.0241048
0.0276547
0.0308771
0.0337685
0.0363297
0.0385662
0.0404876
0.042108
0.0434447
0.0445177
0.0453482
0.0459566
0.0463606
0.0465728
0.0465994
0.0998612
0.0881948
0.0777934
0.0686888
0.0607541
0.0537761
0.047512
0.0417207
0.0361762
0.0306697
0.0250084
0.0190198
0.0125905
0.00582907
0.000479471
0.000318127
0.00277383
0.00609761
0.00915616
0.0117317
0.013736
0.0151057
0.0157787
0.0156805
0.0146818
0.0126338
0.00934761
0.00476956
0.000476568
0.000405076
0.00305622
0.00757905
0.012364
0.0169688
0.0212915
0.0253122
0.0290194
0.0324041
0.0354592
0.0381812
0.0405707
0.0426334
0.0443803
0.0458268
0.0469917
0.0478956
0.048559
0.0489999
0.0492312
0.0492595
0.100296
0.0894042
0.0795453
0.070759
0.0629596
0.0559843
0.0496354
0.0437074
0.0380003
0.0323245
0.0264999
0.0203544
0.0137323
0.00658992
0.000515891
0.000421603
0.00290152
0.00657672
0.00982979
0.0125271
0.0146278
0.016084
0.0168343
0.0168238
0.0159
0.0139264
0.0106263
0.00562986
0.000558298
0.000541677
0.00343006
0.0084582
0.013418
0.0180741
0.0224417
0.0265262
0.0303191
0.0338069
0.0369764
0.0398174
0.0423247
0.0444994
0.0463487
0.0478853
0.0491265
0.0500919
0.0508016
0.0512736
0.0515209
0.0515501
0.100639
0.0903689
0.0809638
0.0724649
0.064812
0.0578778
0.0514993
0.0455007
0.0397075
0.0339519
0.0280761
0.0219364
0.0154287
0.00860797
0.00230902
0.00244892
0.00464548
0.00778872
0.0108703
0.013527
0.0156376
0.0171318
0.0179411
0.0180123
0.0172068
0.0154203
0.0124673
0.00829806
0.00369178
0.00380989
0.00641097
0.0105126
0.0149959
0.0194316
0.0236961
0.0277443
0.0315457
0.0350731
0.038303
0.0412168
0.0438026
0.0460558
0.0479795
0.0495834
0.0508825
0.0518954
0.0526412
0.0531374
0.0533968
0.0534262
0.100902
0.0911153
0.0820768
0.0738267
0.066321
0.0594567
0.0530967
0.0470901
0.0412851
0.0355382
0.0297208
0.0237335
0.0175498
0.0113533
0.00583445
0.00543613
0.00705976
0.00955606
0.0122705
0.0147389
0.0167672
0.0182442
0.0190853
0.0192316
0.0185722
0.0170363
0.0145499
0.0112479
0.00787946
0.00778805
0.00966037
0.0129961
0.0169006
0.0209739
0.0250209
0.028943
0.0326789
0.0361826
0.0394179
0.0423563
0.0449785
0.0472741
0.0492419
0.050888
0.0522248
0.0532693
0.0540399
0.0545525
0.0548199
0.0548488
0.101093
0.0916595
0.0829005
0.0748546
0.0674881
0.0607141
0.054414
0.0484559
0.0427082
0.0370506
0.031385
0.0256567
0.0199029
0.0143732
0.00977624
0.00882975
0.0097751
0.0116806
0.0139349
0.0161219
0.0179935
0.019402
0.0202447
0.0204533
0.0199494
0.0186854
0.0166755
0.0141484
0.0118107
0.0115751
0.0129167
0.0155906
0.0189346
0.022595
0.0263545
0.0300811
0.0336873
0.0371088
0.0402963
0.0432116
0.0458278
0.0481289
0.0501093
0.0517713
0.0531244
0.054184
0.054967
0.0554881
0.0557589
0.0557868
0.101214
0.0920092
0.0834414
0.07555
0.0683074
0.0616365
0.0554304
0.0495703
0.0439406
0.0384408
0.0329994
0.0275973
0.0223127
0.0174161
0.0135497
0.0122624
0.0125784
0.0139545
0.0157478
0.017609
0.0192737
0.0205723
0.0213874
0.02164
0.0212889
0.0202859
0.0187109
0.016819
0.0152019
0.0149471
0.0159458
0.0180938
0.0209388
0.0241854
0.0276233
0.0311068
0.0345321
0.0378205
0.0409118
0.0437592
0.0463284
0.0485986
0.0505591
0.0522099
0.0535577
0.0546158
0.0553991
0.0559207
0.0561913
0.0562177
0.101266
0.0921649
0.083697
0.0759054
0.0687655
0.062204
0.056119
0.0503988
0.0449382
0.0396511
0.0344855
0.0294457
0.0246289
0.0202923
0.016952
0.0154658
0.0153422
0.0162279
0.0175959
0.0191194
0.0205512
0.0217116
0.0224748
0.022756
0.0225346
0.0217674
0.0205651
0.0191703
0.0180474
0.017845
0.0186252
0.0203725
0.0227906
0.0256468
0.0287533
0.031965
0.0351716
0.0382852
0.0412368
0.0439748
0.0464602
0.0486663
0.0505787
0.0521939
0.0535161
0.0545566
0.0553282
0.0558425
0.0561087
0.0561332
0.101247
0.0921207
0.0836575
0.0759064
0.0688428
0.0623917
0.0564488
0.0509026
0.0456522
0.0406196
0.0357642
0.0311013
0.0267298
0.0228726
0.0199146
0.0183363
0.0179084
0.0183828
0.0193706
0.0205712
0.0217639
0.0227704
0.0234631
0.0237576
0.0236352
0.0230707
0.0221763
0.0211605
0.0203823
0.0202552
0.0208959
0.0223393
0.0243982
0.0268971
0.0296774
0.0326027
0.0355635
0.0384694
0.041249
0.0438443
0.0462128
0.0483245
0.050162
0.0517189
0.0529971
0.0540051
0.054754
0.0552537
0.055512
0.0555344
0.101153
0.0918644
0.0833049
0.0755313
0.0685159
0.0621722
0.0563869
0.0510415
0.0460339
0.0412863
0.0367618
0.032477
0.0285204
0.0250727
0.0224091
0.0208083
0.0201746
0.0203208
0.0209784
0.0218892
0.0228495
0.0236964
0.0243064
0.0245979
0.0245486
0.0241491
0.0234972
0.0227692
0.0222343
0.0221811
0.0227284
0.0239376
0.0256949
0.0278712
0.0303366
0.0329727
0.0356723
0.0383499
0.040931
0.0433564
0.0455812
0.0475733
0.0493131
0.0507918
0.0520093
0.0529717
0.0536883
0.0541669
0.0544143
0.0544347
0.100976
0.0913774
0.0826144
0.0747525
0.0677533
0.0615128
0.0558985
0.0507787
0.0460372
0.0415964
0.0374143
0.033501
0.029929
0.0268366
0.0244169
0.0228394
0.0220733
0.0219615
0.0223467
0.0230035
0.0237488
0.024439
0.0249595
0.0252333
0.025234
0.0249624
0.0244973
0.0239833
0.0236236
0.0236302
0.0241094
0.0251325
0.026632
0.0285195
0.0306895
0.0330382
0.0354726
0.0379079
0.0402725
0.0425077
0.0445681
0.0464206
0.0480443
0.0494287
0.0505718
0.0514777
0.0521537
0.052606
0.0528397
0.0528582
0.100707
0.0906342
0.0815537
0.0735371
0.0665256
0.0603849
0.0549535
0.0500766
0.0456253
0.0415046
0.0376691
0.034118
0.0309038
0.0281274
0.0259231
0.0243987
0.0235473
0.0232574
0.0234186
0.0238547
0.0244093
0.0249518
0.0253807
0.025625
0.0256553
0.0254788
0.025153
0.0247955
0.0245606
0.0246099
0.0250337
0.0259043
0.0271837
0.0288116
0.0307044
0.0327776
0.0349464
0.0371334
0.0392711
0.041303
0.0431846
0.0448831
0.046377
0.0476548
0.0487129
0.0495536
0.0501826
0.0506042
0.0508223
0.0508392
0.100332
0.0896002
0.080082
0.0718472
0.0648007
0.0587618
0.0535275
0.0489115
0.0447633
0.0409758
0.0374879
0.0342895
0.0314102
0.0289219
0.0269175
0.0254674
0.0245728
0.0241619
0.0241467
0.0243979
0.0247862
0.0251956
0.0255347
0.0257412
0.0257846
0.0256765
0.0254517
0.0252058
0.025058
0.0251341
0.0255078
0.0262481
0.0273357
0.0287287
0.0303671
0.0321774
0.0340868
0.0360261
0.0379332
0.0397552
0.0414498
0.0429853
0.0443405
0.0455032
0.0464689
0.0472383
0.0478155
0.0482034
0.0484043
0.0484199
0.0998319
0.08823
0.0781484
0.0696397
0.0625471
0.0566214
0.0516037
0.0472679
0.0434376
0.039989
0.0368493
0.0339907
0.0314282
0.0292106
0.0273971
0.0260367
0.0251345
0.0246471
0.0244974
0.0246004
0.0248458
0.025138
0.0253942
0.0255585
0.0256046
0.0255369
0.0253824
0.0252168
0.0251286
0.0252172
0.0255428
0.0261678
0.0270862
0.0282707
0.0296738
0.0312368
0.0328976
0.0345953
0.0362739
0.0378853
0.0393902
0.0407588
0.0419707
0.0430137
0.0438824
0.0445767
0.0450991
0.0454511
0.045634
0.0456485
0.0991793
0.086463
0.0756911
0.0668681
0.0597362
0.0539491
0.0491755
0.0451422
0.0416441
0.0385397
0.0357433
0.0332154
0.0309564
0.0289914
0.0273649
0.0261084
0.0252286
0.0246982
0.0244539
0.0244404
0.0245684
0.0247577
0.0249387
0.0250616
0.0251001
0.0250554
0.0249502
0.0248389
0.0247884
0.0248777
0.0251565
0.0256802
0.0264485
0.0274446
0.0286328
0.0299661
0.0313923
0.0328586
0.0343159
0.035721
0.0370383
0.0382405
0.0393085
0.0402303
0.0410005
0.0416177
0.0420835
0.0423986
0.0425635
0.0425767
0.098337
0.0842185
0.0726347
0.063483
0.0563453
0.050741
0.0462493
0.0425447
0.0393932
0.0366373
0.03418
0.0319722
0.030002
0.0282831
0.0268388
0.0256941
0.0248569
0.0243112
0.0240085
0.0239095
0.0239441
0.0240478
0.0241628
0.0242454
0.0242711
0.0242373
0.024163
0.0240882
0.0240602
0.0241412
0.0243746
0.0248067
0.0254414
0.0262687
0.0272623
0.0283847
0.0295926
0.0308413
0.0320881
0.0332952
0.034431
0.035471
0.0363976
0.0371999
0.037872
0.0384123
0.038821
0.039099
0.0392454
0.0392575
0.0972501
0.0813879
0.0688887
0.059436
0.0523622
0.0470073
0.0428465
0.0395007
0.0367103
0.0343053
0.0321814
0.0302827
0.0285887
0.0271026
0.0258393
0.0248167
0.0240409
0.0235014
0.0231665
0.0230084
0.0229728
0.0230083
0.0230677
0.0231138
0.0231239
0.0230932
0.023037
0.0229837
0.0229679
0.0230356
0.0232262
0.023576
0.0240922
0.0247693
0.025588
0.026519
0.0275266
0.0285736
0.0296236
0.030644
0.0316074
0.0324923
0.033283
0.0339695
0.0345462
0.035011
0.0353637
0.0356046
0.0357322
0.0357433
0.0958367
0.0778235
0.0643487
0.0546861
0.0477915
0.042777
0.0390059
0.036051
0.0336346
0.0315806
0.0297821
0.0281802
0.0267494
0.0254863
0.0243998
0.0235021
0.0227997
0.0222877
0.0219439
0.02175
0.0216649
0.0216487
0.0216635
0.0216782
0.0216728
0.0216413
0.021594
0.021553
0.0215421
0.0215941
0.0217448
0.0220214
0.0224331
0.0229776
0.023641
0.0244001
0.0252265
0.0260892
0.0269579
0.0278051
0.0286074
0.0293464
0.0300086
0.0305849
0.0310703
0.0314625
0.0317608
0.0319654
0.0320742
0.0320839
0.0939681
0.0733248
0.0589013
0.0492111
0.0426633
0.0381022
0.0347851
0.0322516
0.0302181
0.0285111
0.0270267
0.0257072
0.0245255
0.0234746
0.0225593
0.0217886
0.0211688
0.020699
0.0203648
0.020155
0.0200388
0.0199861
0.0199673
0.0199571
0.0199381
0.019904
0.0198604
0.0198254
0.019816
0.0198525
0.0199663
0.0201788
0.0204997
0.0209284
0.021455
0.0220618
0.0227261
0.0234226
0.0241267
0.0248154
0.0254695
0.0260735
0.0266159
0.0270892
0.0274885
0.0278117
0.028058
0.0282274
0.0283174
0.0283253
0.0914324
0.0676239
0.0524413
0.0430268
0.037045
0.0330629
0.0302614
0.0281726
0.0265237
0.0251536
0.0239678
0.0229134
0.0219645
0.0211132
0.0203618
0.0197173
0.019186
0.0187687
0.0184606
0.0182504
0.0181189
0.0180436
0.0180018
0.0179736
0.0179443
0.0179074
0.017866
0.0178319
0.0178215
0.0178459
0.0179273
0.018085
0.0183278
0.0186566
0.0190645
0.019538
0.0200591
0.0206078
0.0211642
0.02171
0.0222296
0.0227103
0.023143
0.0235211
0.0238406
0.0240994
0.0242966
0.0244323
0.0245036
0.024509
0.0878586
0.0603795
0.0449107
0.0362156
0.0310531
0.0277698
0.0255305
0.0238955
0.022622
0.0215711
0.0206628
0.0198524
0.0191176
0.0184511
0.0178541
0.0173327
0.0168919
0.0165368
0.016264
0.0160673
0.015934
0.0158484
0.0157936
0.0157542
0.0157185
0.0156802
0.0156407
0.0156081
0.0155954
0.0156097
0.0156641
0.0157756
0.0159525
0.0161965
0.0165028
0.0168611
0.0172574
0.0176763
0.0181021
0.0185207
0.0189199
0.0192898
0.0196233
0.019915
0.0201616
0.0203612
0.0205129
0.0206168
0.0206698
0.0206719
0.0825527
0.0512148
0.0363742
0.0289614
0.0248619
0.0223636
0.0207036
0.0195104
0.0185887
0.0178296
0.0171717
0.0165801
0.0160379
0.015539
0.0150846
0.0146804
0.0143313
0.0140418
0.0138123
0.0136394
0.0135156
0.0134302
0.013371
0.013327
0.0132893
0.0132518
0.0132149
0.0131842
0.0131685
0.0131767
0.0132111
0.0132843
0.0134067
0.0135798
0.0138005
0.0140608
0.01435
0.0146564
0.0149684
0.0152755
0.0155687
0.0158408
0.0160862
0.016301
0.0164823
0.0166286
0.0167389
0.0168134
0.0168488
0.016847
0.0741462
0.0398891
0.0271403
0.0215794
0.0187027
0.0170083
0.0159012
0.0151111
0.0145014
0.0139969
0.0135557
0.0131538
0.0127795
0.0124291
0.0121039
0.0118083
0.0115474
0.0113254
0.0111443
0.0110029
0.0108972
0.0108204
0.0107645
0.0107218
0.0106861
0.0106518
0.0106191
0.0105915
0.0105752
0.0105782
0.0105987
0.0106424
0.0107207
0.0108359
0.0109859
0.0111645
0.0113632
0.0115739
0.0117885
0.0119999
0.0122018
0.0123892
0.0125584
0.0127063
0.0128309
0.0129305
0.0130043
0.0130526
0.0130714
0.0130647
0.0599819
0.0267889
0.0178896
0.014512
0.0128445
0.0118783
0.011247
0.0107934
0.01044
0.0101434
0.00987946
0.00963403
0.00940044
0.00917682
0.0089646
0.00876719
0.00858885
0.00843331
0.00830285
0.00819784
0.00811642
0.00805491
0.00800829
0.0079718
0.00794185
0.00791314
0.00788608
0.00786315
0.00784833
0.00784779
0.00786035
0.00788196
0.00792517
0.00799425
0.00808772
0.00819985
0.00832388
0.00845513
0.00858875
0.0087203
0.00884597
0.00896274
0.00906812
0.00916028
0.00923739
0.00929814
0.00934132
0.00936771
0.00937182
0.009359
0.0365448
0.0138092
0.00966483
0.00825955
0.00755867
0.0071486
0.00686872
0.00666184
0.00649649
0.00635401
0.00622341
0.00609832
0.00597573
0.00585502
0.00573736
0.00562505
0.00552098
0.00542783
0.00534753
0.00528091
0.00522744
0.00518563
0.0051527
0.00512624
0.00510472
0.00508342
0.0050635
0.00504663
0.00503494
0.00503143
0.005038
0.00504627
0.00506459
0.00510092
0.00514978
0.00520809
0.00527267
0.00534092
0.00541037
0.00547883
0.00554435
0.00560544
0.00566068
0.00570914
0.00574932
0.00578067
0.00580089
0.00581099
0.00580361
0.00578484
0.0100623
0.00437043
0.00352873
0.00327104
0.00313415
0.00303223
0.00295469
0.00289382
0.00284295
0.00279736
0.00275391
0.00271079
0.00266709
0.00262267
0.00257804
0.00253418
0.00249234
0.00245373
0.00241933
0.00238975
0.002365
0.00234491
0.00232838
0.00231466
0.00230293
0.00229023
0.00227853
0.00226867
0.00226134
0.00225745
0.0022588
0.00226104
0.00226413
0.00227512
0.00229127
0.00231067
0.00233236
0.00235555
0.00237946
0.00240339
0.00242664
0.00244872
0.00246895
0.00248705
0.00250185
0.00251355
0.00251917
0.00252045
0.00250942
0.00248886
0.00051258
0.000371504
0.000320412
0.000297538
0.000285158
0.000277306
0.000271816
0.000267751
0.000264615
0.000262055
0.000259812
0.000257713
0.000255639
0.000253521
0.000251334
0.000249085
0.000246816
0.00024458
0.00024244
0.000240451
0.000238653
0.000237052
0.000235673
0.000234384
0.000233369
0.000232442
0.000231569
0.000230753
0.00023002
0.000229394
0.000229011
0.000228756
0.000228665
0.000228742
0.00022906
0.000229687
0.000230536
0.000231545
0.000232652
0.000233799
0.000234936
0.000236015
0.000237005
0.000237863
0.000238577
0.000239075
0.000239402
0.000239355
0.000239029
0.000237582
)
;

boundaryField
{
    floor
    {
        type            compressible::alphatWallFunction;
        Prt             0.85;
        value           nonuniform List<scalar> 
50
(
7.11525e-05
4.89484e-05
4.01919e-05
3.56891e-05
3.27306e-05
3.03083e-05
2.81246e-05
2.60337e-05
2.39467e-05
2.18083e-05
1.96278e-05
1.70909e-05
1.35978e-05
7.73941e-06
0
0
1.50936e-06
6.38087e-06
9.83978e-06
1.22473e-05
1.38221e-05
1.47707e-05
1.49929e-05
1.47804e-05
1.38686e-05
1.21153e-05
9.16348e-06
4.30975e-06
0
0
8.60899e-06
1.39434e-05
1.768e-05
2.05193e-05
2.26128e-05
2.41815e-05
2.53579e-05
2.62294e-05
2.68693e-05
2.7343e-05
2.77251e-05
2.80541e-05
2.83011e-05
2.84761e-05
2.86012e-05
2.86971e-05
2.87783e-05
2.88806e-05
2.90044e-05
2.9257e-05
)
;
    }
    ceiling
    {
        type            compressible::alphatWallFunction;
        Prt             0.85;
        value           nonuniform List<scalar> 
50
(
7.1148e-05
4.91348e-05
4.09108e-05
3.71758e-05
3.51402e-05
3.38446e-05
3.29369e-05
3.2264e-05
3.17445e-05
3.13202e-05
3.09482e-05
3.05995e-05
3.02548e-05
2.99022e-05
2.95376e-05
2.91624e-05
2.87834e-05
2.84099e-05
2.80522e-05
2.77199e-05
2.74194e-05
2.71519e-05
2.69215e-05
2.67057e-05
2.65358e-05
2.638e-05
2.62329e-05
2.60949e-05
2.59703e-05
2.58638e-05
2.57947e-05
2.57501e-05
2.57362e-05
2.57492e-05
2.58022e-05
2.59072e-05
2.60498e-05
2.62192e-05
2.64051e-05
2.65976e-05
2.67882e-05
2.6969e-05
2.71346e-05
2.72782e-05
2.73974e-05
2.74803e-05
2.75345e-05
2.75261e-05
2.74708e-05
2.72267e-05
)
;
    }
    inlet
    {
        type            calculated;
        value           nonuniform List<scalar> 
40
(
0.105877
0.105877
0.105877
0.105877
0.105876
0.105876
0.105876
0.105876
0.105876
0.105876
0.105876
0.105875
0.105875
0.105875
0.105875
0.105875
0.105875
0.105875
0.105874
0.105874
0.105874
0.105874
0.105874
0.105874
0.105873
0.105873
0.105873
0.105873
0.105873
0.105873
0.105873
0.105872
0.105872
0.105872
0.105872
0.105872
0.105872
0.105871
0.105871
0.105871
)
;
    }
    outlet
    {
        type            calculated;
        value           nonuniform List<scalar> 
40
(
0.000249702
0.00276127
0.0062751
0.0100322
0.013891
0.0177988
0.0217211
0.025627
0.0294834
0.0332536
0.0368967
0.0403678
0.0436188
0.0465996
0.0492597
0.0515503
0.0534264
0.0548489
0.055787
0.0562178
0.0561334
0.0555346
0.0544348
0.0528583
0.0508394
0.0484201
0.0456486
0.0425768
0.0392576
0.0357434
0.032084
0.0283254
0.0245091
0.020672
0.0168471
0.0130648
0.00935903
0.00578486
0.00248887
0.000237583
)
;
    }
    fixedWalls
    {
        type            empty;
    }
    baffleFacesThermoBaffle1D_master
    {
        type            compressible::alphatWallFunction;
        Prt             0.85;
        value           nonuniform List<scalar> 
16
(
0
8.37163e-06
1.59906e-05
2.09459e-05
2.45658e-05
2.7357e-05
2.96288e-05
3.15077e-05
3.30515e-05
3.43846e-05
3.54261e-05
3.63473e-05
3.73033e-05
3.82809e-05
3.97895e-05
5.61662e-05
)
;
    }
    baffleFacesThermoBaffle1D_slave
    {
        type            compressible::alphatWallFunction;
        Prt             0.85;
        value           nonuniform List<scalar> 
16
(
6.38247e-06
1.96105e-05
2.76808e-05
3.35196e-05
3.82694e-05
4.21422e-05
4.53659e-05
4.81413e-05
5.06232e-05
5.29127e-05
5.50729e-05
5.71863e-05
5.93599e-05
6.17719e-05
6.44189e-05
7.01792e-05
)
;
    }
    baffleFacesThermoBaffle3D_master
    {
        type            compressible::alphatWallFunction;
        Prt             0.85;
        value           nonuniform List<scalar> 
16
(
5.05064e-06
1.25912e-05
2.00742e-05
2.50648e-05
2.86063e-05
3.12856e-05
3.32733e-05
3.49877e-05
3.64156e-05
3.76089e-05
3.86461e-05
3.96224e-05
4.07284e-05
4.28906e-05
5.02598e-05
7.11505e-05
)
;
    }
    baffleFacesThermoBaffle3D_slave
    {
        type            compressible::alphatWallFunction;
        Prt             0.85;
        value           nonuniform List<scalar> 
16
(
1.99489e-06
5.48943e-06
9.26639e-06
1.34683e-05
1.87193e-05
2.40841e-05
2.88514e-05
3.30479e-05
3.68549e-05
4.03777e-05
4.37778e-05
4.73812e-05
5.10587e-05
5.52756e-05
6.12305e-05
7.36495e-05
)
;
    }
}


// ************************************************************************* //
