/*--------------------------------*- C++ -*----------------------------------*\
| =========                 |                                                 |
| \\      /  F ield         | OpenFOAM: The Open Source CFD Toolbox           |
|  \\    /   O peration     | Version:  v1906                                 |
|   \\  /    A nd           | Web:      www.OpenFOAM.com                      |
|    \\/     M anipulation  |                                                 |
\*---------------------------------------------------------------------------*/
FoamFile
{
    version     2.0;
    format      ascii;
    class       volScalarField;
    location    "500";
    object      epsilon;
}
// * * * * * * * * * * * * * * * * * * * * * * * * * * * * * * * * * * * * * //

dimensions      [0 2 -3 0 0 0 0];


internalField   nonuniform List<scalar> 
2000
(
1.91877
0.723554
0.449567
0.342241
0.282567
0.239569
0.205014
0.175428
0.149099
0.125223
0.103878
0.08252
0.0585103
0.0300349
0.00602688
0.00204957
0.0123018
0.0252806
0.0390831
0.0514545
0.0609687
0.0673423
0.0690362
0.0677739
0.0619579
0.0516349
0.0370085
0.0195504
0.00477172
0.00706363
0.0333131
0.0608754
0.0877741
0.113202
0.134996
0.153142
0.167815
0.179285
0.188029
0.194676
0.200148
0.204943
0.208583
0.211172
0.213026
0.214448
0.215658
0.217209
0.219116
0.223086
0.103727
0.173048
0.155728
0.132985
0.115908
0.102449
0.0909722
0.0805868
0.07076
0.0611709
0.051669
0.0417665
0.031364
0.0216246
0.0183948
0.00568205
0.0107008
0.0169569
0.0222219
0.0260622
0.0285102
0.0294697
0.0292397
0.0279224
0.0254224
0.0218797
0.0175501
0.0117894
0.00591407
0.0127528
0.0222948
0.032296
0.0413869
0.0498105
0.0571235
0.063273
0.0682917
0.0723009
0.0754437
0.0778775
0.0798167
0.0814098
0.0826204
0.0834982
0.0841147
0.0845419
0.084845
0.0851
0.0853265
0.0856667
0.0285404
0.0662927
0.0784948
0.0776439
0.0732993
0.0682581
0.0630529
0.0577893
0.0524098
0.0468456
0.0410727
0.0350996
0.0293261
0.0254486
0.0344334
0.0128196
0.0116608
0.0154034
0.0186355
0.0210213
0.0225647
0.0231429
0.023007
0.022194
0.0207809
0.0188963
0.0161688
0.0122466
0.00926977
0.0248437
0.0219745
0.0272055
0.0326383
0.037649
0.0419876
0.0456069
0.0485319
0.050841
0.0526226
0.0539785
0.0550182
0.0558215
0.0564122
0.056825
0.0570974
0.0572653
0.0573615
0.0574147
0.0574444
0.0574751
0.0173956
0.0361516
0.0481989
0.0527078
0.0532274
0.0519927
0.0498067
0.0470997
0.0440078
0.0405977
0.0369592
0.0333039
0.0302804
0.0302129
0.0509928
0.0199313
0.0133214
0.0153561
0.017658
0.0195076
0.0207707
0.0213979
0.0214674
0.0210734
0.0202595
0.0190909
0.0174637
0.0151987
0.0142654
0.036186
0.0238138
0.0262352
0.0297482
0.0331239
0.036055
0.0384724
0.0403906
0.0418657
0.0429697
0.043778
0.0443641
0.0447835
0.0450677
0.0452452
0.0453412
0.0453787
0.0453775
0.0453538
0.0453235
0.0452935
0.0140891
0.0248915
0.0338826
0.0391227
0.0414707
0.0420696
0.0416131
0.0404677
0.0388548
0.0369122
0.0348087
0.0328791
0.0319716
0.0350899
0.0681453
0.0266316
0.0151231
0.0158471
0.0176359
0.0192128
0.0203841
0.0210979
0.0213728
0.0213205
0.021011
0.0205479
0.0200345
0.0198602
0.0224333
0.0460555
0.0265177
0.0267129
0.028854
0.0311113
0.0330948
0.0347056
0.0359476
0.0368647
0.037514
0.0379537
0.0382379
0.0384087
0.0384945
0.0385185
0.0384992
0.0384514
0.0383899
0.0383255
0.0382688
0.0382246
0.0126748
0.0196789
0.0262663
0.0310182
0.0339046
0.0354008
0.0359388
0.0358208
0.0352501
0.0344037
0.0335039
0.0329733
0.0338236
0.0398992
0.0848909
0.0327831
0.0169586
0.0167418
0.0181016
0.0195184
0.0206601
0.0214565
0.0219329
0.0221873
0.0223323
0.0225408
0.023142
0.025255
0.0335577
0.0546377
0.0294328
0.0279074
0.0289163
0.0302715
0.0314947
0.0324647
0.0331744
0.0336558
0.0339521
0.0341077
0.0341628
0.0341489
0.0340883
0.0339993
0.0338952
0.0337867
0.0336832
0.0335925
0.0335217
0.033475
0.0119304
0.0168724
0.0218274
0.0258812
0.0287825
0.0306751
0.0317958
0.0323606
0.0325523
0.0325584
0.0326393
0.033287
0.0357094
0.0445026
0.100901
0.0384835
0.0187813
0.0178971
0.0189442
0.0202218
0.0213327
0.022191
0.0228291
0.0233495
0.0239009
0.0247293
0.0263698
0.0306918
0.0464632
0.0616848
0.0325498
0.0295283
0.0295409
0.0300932
0.0306434
0.0310543
0.0313061
0.0314178
0.0314185
0.0313392
0.0312075
0.0310459
0.0308703
0.0306933
0.0305238
0.0303687
0.0302339
0.0301244
0.030045
0.0299991
0.0114843
0.0151931
0.0190476
0.022467
0.0251906
0.0272203
0.0286731
0.0296985
0.0304559
0.0311377
0.0320348
0.0337064
0.0375433
0.0488912
0.116308
0.0436988
0.0207158
0.0192747
0.0200653
0.0212092
0.0222674
0.0231516
0.0239048
0.024644
0.0255519
0.0269458
0.0295517
0.0359784
0.0605117
0.0682965
0.0358815
0.0314602
0.0305361
0.0303298
0.0302499
0.0301456
0.0299838
0.0297676
0.0295108
0.02923
0.0289411
0.0286572
0.0283877
0.0281398
0.0279181
0.0277263
0.0275674
0.0274438
0.0273586
0.0273145
0.011193
0.0141093
0.0172052
0.0201072
0.0226007
0.0246376
0.0262713
0.0276076
0.0287884
0.030011
0.0315952
0.0341685
0.0393047
0.0531025
0.131441
0.0483364
0.0228075
0.0208775
0.0214369
0.0224263
0.0233902
0.024251
0.0250671
0.0259743
0.0271906
0.0291071
0.0326369
0.0410941
0.0756565
0.0741872
0.0393353
0.0336455
0.0318099
0.0308488
0.0301538
0.0295583
0.0290134
0.0285006
0.0280154
0.0275592
0.0271357
0.0267488
0.0264014
0.0260953
0.0258315
0.0256104
0.0254324
0.0252981
0.0252089
0.0251668
0.0109912
0.0133698
0.0159282
0.0184221
0.0206892
0.0226724
0.0243958
0.0259409
0.0274394
0.0290964
0.0312623
0.0346373
0.0409885
0.0571893
0.146596
0.0526085
0.0250933
0.0227394
0.0230601
0.0238439
0.0246518
0.0254291
0.0262518
0.0272755
0.0287559
0.0311656
0.0356256
0.0461572
0.0919003
0.0793817
0.0429119
0.0360881
0.0333127
0.0315647
0.0302487
0.0291801
0.0282776
0.0274956
0.0268075
0.0261982
0.0256592
0.0251854
0.0247731
0.0244193
0.0241213
0.0238768
0.0236837
0.0235411
0.0234491
0.023409
0.0108455
0.0128435
0.0150109
0.0171855
0.0192499
0.0211543
0.022913
0.0245961
0.0263319
0.0283363
0.0309934
0.0350844
0.0425881
0.0611942
0.162007
0.0561079
0.0276439
0.0249348
0.0249565
0.025443
0.0260115
0.0266355
0.0274055
0.028494
0.0301964
0.0330811
0.0385215
0.0513937
0.109779
0.084096
0.04679
0.0388622
0.0350201
0.0324124
0.0304609
0.0289336
0.0276994
0.0266752
0.0258088
0.0250673
0.0244301
0.0238834
0.0234174
0.0230247
0.0226992
0.022436
0.0222312
0.0220823
0.0219884
0.0219503
0.0107369
0.0124568
0.0143331
0.0162575
0.0181474
0.019966
0.0217274
0.0234983
0.0254082
0.0276857
0.0307517
0.0354773
0.0440841
0.0651645
0.178161
0.0593335
0.0306814
0.0275997
0.0271585
0.0272034
0.0274251
0.0278206
0.0284785
0.0295789
0.0314558
0.0347911
0.0412804
0.0569912
0.131288
0.0886915
0.0514425
0.0421115
0.0369076
0.0333248
0.0307224
0.0287585
0.0272238
0.0259872
0.0249677
0.0241145
0.0233954
0.0227888
0.0222791
0.0218552
0.0215078
0.02123
0.0210162
0.0208627
0.0207676
0.0207313
0.0106542
0.0121656
0.0138212
0.0155483
0.0172907
0.0190252
0.0207697
0.0225914
0.0246235
0.0271072
0.0304997
0.0357696
0.0454238
0.0691358
0.195933
0.0628197
0.0346913
0.0309386
0.0296947
0.0290791
0.0288363
0.0289316
0.0294234
0.0304829
0.0324759
0.0362054
0.0437759
0.062839
0.156082
0.0940534
0.0578937
0.0460215
0.0389051
0.0342114
0.0309646
0.0286038
0.0268097
0.0253951
0.0242493
0.0233052
0.0225199
0.0218652
0.0213211
0.0208726
0.0205083
0.0202194
0.0199989
0.0198421
0.0197464
0.0197119
0.0105903
0.0119426
0.0134281
0.0149988
0.0166177
0.0182733
0.0199887
0.0218331
0.0239425
0.0265682
0.0301975
0.0358915
0.0464824
0.0730511
0.217085
0.0665259
0.0405322
0.0352093
0.0325376
0.0309879
0.0301666
0.0299128
0.0301968
0.031164
0.0331982
0.0372106
0.0457894
0.0688552
0.188304
0.105119
0.0683
0.050646
0.0408169
0.0349405
0.0311101
0.0284252
0.0264265
0.0248733
0.02363
0.0226155
0.0217794
0.021088
0.0205175
0.0200505
0.0196737
0.0193766
0.0191514
0.0189924
0.0188967
0.0188637
0.0105404
0.01177
0.0131234
0.0145693
0.0160852
0.0176686
0.0193471
0.0211914
0.0233381
0.0260416
0.0298039
0.0357492
0.0469856
0.0762778
0.242068
0.0726054
0.0506175
0.0405718
0.0355035
0.0327793
0.0313248
0.0307018
0.0307684
0.0315917
0.0335677
0.0376568
0.0468693
0.0744993
0.241388
0.150402
0.0861633
0.0553384
0.0422126
0.0353256
0.0310906
0.0281882
0.0260527
0.0244051
0.0230938
0.0220298
0.0211574
0.0204396
0.0198503
0.0193703
0.0189847
0.0186821
0.0184537
0.0182936
0.0181981
0.0181666
0.0105014
0.0116359
0.0128864
0.0142331
0.0156633
0.0171813
0.0188179
0.0206435
0.0227912
0.0255081
0.0292833
0.035223
0.0465152
0.0772649
0.301485
0.167578
0.0698814
0.0462672
0.0380959
0.034228
0.0322088
0.0312555
0.0311131
0.0317573
0.0335738
0.0374454
0.0464096
0.0767877
0.385853
0.353452
0.10602
0.0573058
0.0424043
0.0352076
0.0308523
0.0278723
0.0256766
0.0239809
0.0226313
0.0215376
0.0206427
0.0199082
0.0193069
0.0188185
0.0184274
0.0181215
0.0178915
0.0177308
0.0176359
0.0176057
0.0104712
0.0115327
0.0127036
0.0139717
0.0153312
0.0167908
0.0183824
0.020174
0.0222906
0.0249602
0.0286238
0.0342389
0.0443319
0.0677729
0.157315
0.113138
0.0680741
0.0482412
0.0394922
0.0350988
0.0327386
0.0315506
0.0312242
0.0316881
0.0332444
0.0365658
0.0436478
0.0612331
0.117516
0.112176
0.0748724
0.0523288
0.0409637
0.0345257
0.0303893
0.0274773
0.0252972
0.0235976
0.0222379
0.021133
0.0202282
0.0194857
0.0188784
0.0183858
0.017992
0.0176845
0.017454
0.0172935
0.0171993
0.0171703
0.0104485
0.0114552
0.0125659
0.0137732
0.0150753
0.0164833
0.0180286
0.0197744
0.0218335
0.0244052
0.0278564
0.0329208
0.0412407
0.0569604
0.0893779
0.0800961
0.060408
0.0470875
0.0395654
0.0353237
0.032895
0.0315929
0.0311307
0.0314237
0.0326725
0.0353203
0.0404404
0.0504005
0.068142
0.0685971
0.0580045
0.0465969
0.0387352
0.0334566
0.0297553
0.0270239
0.0249229
0.0232581
0.0219129
0.0208132
0.0199096
0.0191667
0.0185587
0.0180654
0.0176713
0.0173639
0.0171337
0.0169739
0.0168804
0.0168524
0.0104323
0.0114002
0.0124676
0.0136298
0.0148869
0.0162504
0.0177499
0.0194418
0.021424
0.0238619
0.0270397
0.0314668
0.0380735
0.048453
0.0628523
0.0615777
0.0527488
0.0444541
0.0386983
0.0350069
0.0327241
0.0314182
0.0308749
0.0310207
0.0319634
0.0339727
0.0375404
0.0433302
0.0507464
0.0518373
0.0478368
0.0417081
0.0363762
0.0322211
0.0290318
0.0265463
0.0245692
0.0229691
0.0216587
0.020578
0.019685
0.0189484
0.018344
0.0178531
0.0174607
0.0171547
0.0169255
0.0167666
0.016674
0.0166469
0.0104222
0.011366
0.0124058
0.0135374
0.0147614
0.0160883
0.0175441
0.0191778
0.0210711
0.0233549
0.026236
0.030039
0.0352253
0.0422211
0.0498096
0.0504239
0.0465831
0.0414915
0.0373215
0.0343195
0.0323087
0.031081
0.0305066
0.0305383
0.0312038
0.03268
0.0351307
0.0386205
0.0423113
0.0432084
0.0414092
0.0378746
0.0342151
0.0309893
0.028298
0.026082
0.0242546
0.02274
0.0214797
0.020429
0.0195546
0.0188296
0.0182328
0.017747
0.0173581
0.0170543
0.0168267
0.0166688
0.0165771
0.0165505
0.0104181
0.011352
0.0123792
0.0134948
0.0146978
0.0159964
0.0174127
0.0189875
0.0207867
0.0229096
0.0254985
0.0287428
0.032831
0.0377293
0.0423305
0.0434216
0.0417398
0.0386993
0.035779
0.0334383
0.0317446
0.0306428
0.0300756
0.0300206
0.0304654
0.031522
0.033198
0.0353764
0.0374345
0.0380671
0.0371359
0.0349504
0.0323745
0.0298669
0.0276167
0.0256659
0.0239984
0.0225814
0.021382
0.0203701
0.0195202
0.018811
0.0182247
0.0177459
0.0173615
0.0170607
0.016835
0.0166784
0.0165874
0.0165611
0.0104202
0.0113587
0.0123889
0.0135032
0.0146979
0.0159779
0.0173605
0.0188788
0.0205843
0.0225495
0.0248672
0.0276365
0.0309014
0.034484
0.0375971
0.0387383
0.0380703
0.0362827
0.0342781
0.0325017
0.0311187
0.0301628
0.0296286
0.0295119
0.0297938
0.0305323
0.0316774
0.0330778
0.0343136
0.0347362
0.0341883
0.032746
0.0308775
0.02891
0.027032
0.0253265
0.023818
0.022505
0.0213726
0.0204048
0.019584
0.0188943
0.0183209
0.0178505
0.0174717
0.0171745
0.016951
0.0167957
0.0167052
0.016679
0.0104289
0.0113877
0.0124375
0.0135663
0.0147663
0.0160384
0.0173949
0.0188619
0.020478
0.0222954
0.0243707
0.0267469
0.0293997
0.0321319
0.0344155
0.0354822
0.0353153
0.0342917
0.0329325
0.0316075
0.030502
0.0296927
0.0292063
0.0290519
0.029216
0.0297208
0.0305031
0.031424
0.032202
0.032475
0.0321129
0.0311044
0.0297073
0.0281434
0.0265722
0.0250856
0.02373
0.0225202
0.0214583
0.0205382
0.0197499
0.0190822
0.0185236
0.0180631
0.0176907
0.0173975
0.0171764
0.0170223
0.0169321
0.0169057
0.0104449
0.0114416
0.0125295
0.0136907
0.0149115
0.0161878
0.017527
0.0189486
0.0204832
0.0221657
0.0240292
0.0260841
0.0282789
0.0304395
0.0322141
0.0331761
0.0332612
0.0327135
0.0317972
0.0308198
0.0299491
0.0292758
0.0288435
0.0286709
0.0287519
0.0290885
0.0296221
0.0302378
0.0307424
0.030913
0.0306495
0.0299089
0.0288351
0.0275751
0.0262544
0.0249611
0.0237457
0.0226369
0.0216464
0.0207763
0.0200227
0.019379
0.0188368
0.0183873
0.018022
0.0177332
0.0175146
0.0173616
0.0172717
0.0172447
0.0104695
0.0115243
0.0126719
0.0138858
0.0151447
0.0164388
0.0177707
0.0191553
0.0206155
0.0221775
0.0238578
0.0256503
0.0274972
0.029257
0.0306927
0.0315506
0.0317709
0.0314985
0.0308936
0.0301792
0.0294999
0.0289464
0.0285691
0.0283921
0.0284167
0.0286332
0.0289961
0.0294126
0.0297458
0.0298477
0.0296425
0.0290771
0.0282324
0.0272044
0.02609
0.0249629
0.0238766
0.0228644
0.0219447
0.0211257
0.0204085
0.0197904
0.0192659
0.0188284
0.0184708
0.0181869
0.0179709
0.017819
0.0177289
0.0177011
0.0105041
0.0116416
0.0128748
0.0141653
0.0154822
0.0168088
0.0181442
0.0194999
0.0208949
0.0223483
0.0238704
0.0254465
0.027023
0.0284893
0.0296831
0.0304455
0.0307305
0.0306212
0.0302308
0.0297113
0.0291841
0.0287322
0.0284069
0.0282348
0.0282228
0.0283527
0.0285991
0.0288831
0.0291055
0.0291624
0.028996
0.0285517
0.0278753
0.0270297
0.0260833
0.0251012
0.0241325
0.0232119
0.0223617
0.0215942
0.0209148
0.0203237
0.0198181
0.0193935
0.0190445
0.0187657
0.0185525
0.0184016
0.0183113
0.0182822
0.0105512
0.0118019
0.0131527
0.0145488
0.0159464
0.0173218
0.0186711
0.0200052
0.0213422
0.0226987
0.024081
0.0254758
0.0268366
0.0280781
0.0290879
0.029763
0.03007
0.0300557
0.0298122
0.0294338
0.0290243
0.0286561
0.0283772
0.0282149
0.028178
0.0282516
0.0284164
0.0286099
0.0287593
0.0287875
0.02865
0.0282957
0.0277473
0.0270446
0.0262398
0.0253845
0.0245229
0.023689
0.0229068
0.0221912
0.0215506
0.0209879
0.0205026
0.0200921
0.0197524
0.0194794
0.0192694
0.0191195
0.0190287
0.018998
0.0106138
0.0120171
0.0135264
0.0150637
0.0165686
0.0180099
0.0193829
0.0207009
0.0219845
0.0232518
0.0245101
0.0257481
0.0269286
0.0279908
0.028852
0.0294454
0.029748
0.029787
0.0296384
0.0293603
0.0290397
0.028738
0.0284988
0.028348
0.0282952
0.0283308
0.0284381
0.0285703
0.0286715
0.0286827
0.0285685
0.0282818
0.027834
0.0272491
0.0265645
0.0258214
0.0250582
0.0243068
0.0235911
0.022928
0.0223275
0.021795
0.0213317
0.0209367
0.0206076
0.0203411
0.0201347
0.0199861
0.0198947
0.0198619
0.0106968
0.012305
0.0140269
0.0157501
0.017393
0.0189173
0.0203213
0.0216253
0.0228564
0.0240379
0.0251809
0.0262789
0.0273045
0.0282113
0.0289468
0.0294631
0.0297439
0.0298074
0.0297137
0.0295045
0.0292492
0.0289986
0.0287912
0.0286511
0.0285883
0.0285979
0.0286642
0.0287536
0.0288222
0.0288239
0.0287296
0.0284977
0.0281317
0.0276453
0.0270648
0.0264224
0.0257506
0.0250783
0.0244287
0.023819
0.0232607
0.0227605
0.0223214
0.021944
0.0216269
0.0213683
0.0211662
0.0210193
0.0209274
0.0208921
0.0108072
0.0126932
0.0147007
0.0166671
0.0184829
0.0201056
0.0215433
0.0228297
0.0240038
0.0250972
0.0261275
0.0270944
0.0279799
0.0287512
0.0293711
0.0298071
0.0300508
0.0301185
0.0300534
0.0298871
0.0296754
0.029461
0.0292769
0.029145
0.0290753
0.0290658
0.0291016
0.0291607
0.029207
0.0292043
0.0291266
0.0289404
0.028643
0.0282409
0.0277523
0.0272018
0.0266163
0.0260212
0.025438
0.0248837
0.0243703
0.0239056
0.0234938
0.0231366
0.022834
0.022585
0.0223886
0.0222441
0.0221519
0.0221138
0.0109563
0.0132252
0.0156212
0.0179045
0.0199311
0.0216623
0.0231278
0.0243843
0.0254888
0.026485
0.0273985
0.028236
0.0289873
0.0296305
0.0301399
0.0304948
0.0306906
0.0307408
0.0306811
0.0305348
0.0303478
0.0301554
0.0299856
0.0298576
0.0297809
0.0297552
0.0297688
0.0298043
0.0298342
0.0298297
0.0297661
0.0296185
0.0293797
0.0290516
0.0286459
0.028181
0.0276785
0.0271602
0.0266452
0.0261496
0.0256852
0.0252603
0.02488
0.024547
0.0242621
0.0240254
0.0238367
0.0236959
0.0236039
0.0235627
0.0111626
0.0139742
0.016908
0.0196028
0.0218769
0.0237142
0.0251865
0.0263873
0.0273988
0.0282799
0.0290648
0.0297668
0.0303824
0.0308974
0.0312948
0.0315616
0.0316966
0.0317119
0.0316372
0.0314904
0.0313101
0.0311254
0.0309597
0.0308294
0.0307433
0.0307016
0.0306966
0.0307121
0.0307286
0.0307223
0.0306706
0.0305558
0.030368
0.030106
0.0297766
0.0293931
0.0289724
0.0285322
0.0280891
0.0276573
0.0272479
0.026869
0.0265262
0.0262227
0.0259602
0.0257396
0.0255615
0.0254264
0.0253357
0.0252914
0.0114593
0.0150704
0.0187662
0.0219906
0.0245355
0.0264504
0.027883
0.028982
0.0298619
0.0305982
0.0312336
0.0317859
0.0322562
0.0326356
0.0329129
0.0330804
0.0331394
0.0331026
0.0329892
0.0328226
0.0326308
0.0324383
0.032265
0.0321243
0.0320237
0.0319639
0.0319388
0.0319361
0.0319391
0.0319289
0.0318868
0.0317994
0.0316563
0.0314542
0.0311966
0.0308926
0.0305545
0.0301963
0.0298312
0.0294708
0.0291249
0.0288007
0.0285036
0.0282373
0.0280039
0.027805
0.0276418
0.0275154
0.0274276
0.0273804
0.0119114
0.016764
0.0215679
0.0254542
0.028251
0.0301625
0.0314663
0.0323868
0.0330753
0.0336224
0.0340753
0.0344539
0.0347604
0.0349885
0.0351303
0.0351807
0.0351449
0.0350302
0.0348579
0.0346482
0.0344239
0.0342057
0.0340102
0.0338481
0.0337252
0.0336419
0.0335931
0.0335683
0.0335544
0.0335372
0.0335019
0.0334367
0.0333329
0.0331861
0.0329975
0.0327729
0.0325211
0.0322517
0.031974
0.0316964
0.0314261
0.031169
0.0309295
0.0307112
0.0305164
0.0303472
0.0302052
0.0300922
0.0300102
0.0299604
0.0126618
0.0195846
0.0260374
0.0306802
0.0335973
0.0353239
0.0363395
0.0369594
0.0373669
0.0376595
0.0378815
0.0380489
0.0381611
0.038211
0.0381917
0.0380981
0.0379365
0.0377166
0.0374562
0.0371746
0.0368916
0.0366249
0.0363882
0.0361895
0.0360322
0.0359165
0.0358368
0.0357839
0.0357472
0.0357167
0.0356817
0.0356331
0.0355634
0.0354683
0.0353474
0.0352048
0.0350465
0.0348774
0.0347019
0.0345239
0.0343471
0.0341749
0.0340102
0.0338555
0.0337132
0.0335854
0.0334742
0.0333812
0.0333094
0.0332581
0.0140813
0.024807
0.0337043
0.0389625
0.0415946
0.0427647
0.0432176
0.0433454
0.0433381
0.0432801
0.0431987
0.0430974
0.0429663
0.0427931
0.0425685
0.0422887
0.0419585
0.0415895
0.0411986
0.0408048
0.0404264
0.0400789
0.0397737
0.0395158
0.0393054
0.0391425
0.0390196
0.0389274
0.0388571
0.0388026
0.0387588
0.0387206
0.0386801
0.0386338
0.0385812
0.0385268
0.0384752
0.0384255
0.0383755
0.0383233
0.0382675
0.0382074
0.0381432
0.0380758
0.038007
0.0379385
0.0378723
0.0378095
0.037755
0.0377034
0.0173914
0.0360618
0.0481375
0.0529522
0.0542558
0.0541392
0.0535607
0.0528919
0.0522625
0.0517041
0.0512048
0.0507397
0.0502812
0.049806
0.0492995
0.0487569
0.0481828
0.0475904
0.0469983
0.0464263
0.0458931
0.0454126
0.0449946
0.0446397
0.0443449
0.0441096
0.0439217
0.0437694
0.0436457
0.0435486
0.0434816
0.0434473
0.0434325
0.0434332
0.0434511
0.0434977
0.0435785
0.0436824
0.0437984
0.0439161
0.0440267
0.0441235
0.0442024
0.0442607
0.0442992
0.0443184
0.0443211
0.0443038
0.0442779
0.0442266
0.028538
0.06616
0.0788299
0.0789442
0.0764136
0.0735425
0.0711018
0.0691097
0.0674971
0.0661706
0.0650395
0.064026
0.0630697
0.0621286
0.0611784
0.0602117
0.059235
0.0582655
0.0573269
0.0564435
0.0556368
0.0549194
0.0543006
0.0537722
0.0533302
0.0529729
0.0526745
0.0524186
0.0522001
0.0520227
0.0519045
0.0518711
0.051874
0.0519008
0.0520069
0.0521998
0.0524712
0.0528004
0.0531641
0.0535388
0.0539047
0.0542445
0.0545473
0.0548036
0.0550124
0.0551667
0.0552778
0.0553305
0.0553588
0.0553011
0.103715
0.172917
0.157693
0.138002
0.124799
0.116085
0.109969
0.10546
0.102011
0.0992575
0.0969414
0.0948786
0.0929443
0.0910598
0.0891851
0.0873114
0.0854556
0.0836499
0.081935
0.0803494
0.0789243
0.0776687
0.076596
0.0756638
0.0749015
0.0742853
0.0737445
0.0732563
0.0728229
0.0724596
0.0722186
0.072148
0.0721538
0.0722225
0.0724798
0.0729411
0.0735736
0.0743322
0.0751694
0.076037
0.0768941
0.0777026
0.0784393
0.0790764
0.0796139
0.080017
0.0803335
0.0804835
0.0805984
0.0804378
1.91877
0.730547
0.468764
0.375466
0.330629
0.304179
0.286579
0.274018
0.2646
0.257086
0.250629
0.244684
0.238906
0.233098
0.227198
0.221241
0.215339
0.209634
0.204278
0.199393
0.195053
0.191251
0.188024
0.185038
0.182715
0.180603
0.178623
0.176779
0.175124
0.173721
0.172801
0.172218
0.172055
0.172235
0.172942
0.174337
0.176245
0.178527
0.181052
0.18369
0.186327
0.18885
0.19118
0.193212
0.194907
0.196086
0.196854
0.196714
0.195896
0.192369
)
;

boundaryField
{
    floor
    {
        Cmu             0.09;
        kappa           0.41;
        E               9.8;
        type            epsilonWallFunction;
        value           nonuniform List<scalar> 
50
(
1.91877
0.723554
0.449567
0.342241
0.282567
0.239569
0.205014
0.175428
0.149099
0.125223
0.103878
0.08252
0.0585103
0.0300349
0.00602688
0.00204957
0.0123018
0.0252806
0.0390831
0.0514545
0.0609687
0.0673423
0.0690362
0.0677739
0.0619579
0.0516349
0.0370085
0.0195504
0.00477172
0.00706363
0.0333131
0.0608754
0.0877741
0.113202
0.134996
0.153142
0.167815
0.179285
0.188029
0.194676
0.200148
0.204943
0.208583
0.211172
0.213026
0.214448
0.215658
0.217209
0.219116
0.223086
)
;
        lowReCorrection 0;
    }
    ceiling
    {
        Cmu             0.09;
        kappa           0.41;
        E               9.8;
        type            epsilonWallFunction;
        value           nonuniform List<scalar> 
50
(
1.91877
0.730547
0.468764
0.375466
0.330629
0.304179
0.286579
0.274018
0.2646
0.257086
0.250629
0.244684
0.238906
0.233098
0.227198
0.221241
0.215339
0.209634
0.204278
0.199393
0.195053
0.191251
0.188024
0.185038
0.182715
0.180603
0.178623
0.176779
0.175124
0.173721
0.172801
0.172218
0.172055
0.172235
0.172942
0.174337
0.176245
0.178527
0.181052
0.18369
0.186327
0.18885
0.19118
0.193212
0.194907
0.196086
0.196854
0.196714
0.195896
0.192369
)
;
        lowReCorrection 0;
    }
    inlet
    {
        type            fixedValue;
        value           uniform 0.01;
    }
    outlet
    {
        type            zeroGradient;
    }
    fixedWalls
    {
        type            empty;
    }
    baffleFacesThermoBaffle1D_master
    {
        Cmu             0.09;
        kappa           0.41;
        E               9.8;
        type            epsilonWallFunction;
        value           nonuniform List<scalar> 
16
(
0.00204957
0.00568205
0.0128196
0.0199313
0.0266316
0.0327831
0.0384835
0.0436988
0.0483364
0.0526085
0.0561079
0.0593335
0.0628197
0.0665259
0.0726054
0.167578
)
;
        lowReCorrection 0;
    }
    baffleFacesThermoBaffle1D_slave
    {
        Cmu             0.09;
        kappa           0.41;
        E               9.8;
        type            epsilonWallFunction;
        value           nonuniform List<scalar> 
16
(
0.00602688
0.0183948
0.0344334
0.0509928
0.0681453
0.0848909
0.100901
0.116308
0.131441
0.146596
0.162007
0.178161
0.195933
0.217085
0.242068
0.301485
)
;
        lowReCorrection 0;
    }
    baffleFacesThermoBaffle3D_master
    {
        Cmu             0.09;
        kappa           0.41;
        E               9.8;
        type            epsilonWallFunction;
        value           nonuniform List<scalar> 
16
(
0.00706363
0.0127528
0.0248437
0.036186
0.0460555
0.0546377
0.0616848
0.0682965
0.0741872
0.0793817
0.084096
0.0886915
0.0940534
0.105119
0.150402
0.353452
)
;
        lowReCorrection 0;
    }
    baffleFacesThermoBaffle3D_slave
    {
        Cmu             0.09;
        kappa           0.41;
        E               9.8;
        type            epsilonWallFunction;
        value           nonuniform List<scalar> 
16
(
0.00477172
0.00591407
0.00926977
0.0142654
0.0224333
0.0335577
0.0464632
0.0605117
0.0756565
0.0919003
0.109779
0.131288
0.156082
0.188304
0.241388
0.385853
)
;
        lowReCorrection 0;
    }
}


// ************************************************************************* //
