/*--------------------------------*- C++ -*----------------------------------*\
| =========                 |                                                 |
| \\      /  F ield         | OpenFOAM: The Open Source CFD Toolbox           |
|  \\    /   O peration     | Version:  v1906                                 |
|   \\  /    A nd           | Web:      www.OpenFOAM.com                      |
|    \\/     M anipulation  |                                                 |
\*---------------------------------------------------------------------------*/
FoamFile
{
    version     2.0;
    format      ascii;
    class       volScalarField;
    location    "500";
    object      k;
}
// * * * * * * * * * * * * * * * * * * * * * * * * * * * * * * * * * * * * * //

dimensions      [0 2 -2 0 0 0 0];


internalField   nonuniform List<scalar> 
2000
(
0.0963836
0.0503077
0.0366308
0.0305396
0.0268767
0.0240749
0.0216992
0.0195567
0.0175461
0.0156176
0.0137878
0.011826
0.00940319
0.00602857
0.00237301
0.00115473
0.00331985
0.00536599
0.00717454
0.00861843
0.0096507
0.0103125
0.0104849
0.0103573
0.00975649
0.00864101
0.00692133
0.00452452
0.00203065
0.00263651
0.00645521
0.00965027
0.0123162
0.0145932
0.0164111
0.0178511
0.0189746
0.0198301
0.0204704
0.0209506
0.0213417
0.0216818
0.0219384
0.0221201
0.0222499
0.0223493
0.0224338
0.0225418
0.022674
0.0229478
0.0992716
0.0839848
0.0708115
0.0621314
0.0558978
0.0508672
0.0464946
0.0424977
0.038683
0.0349022
0.0310016
0.0267435
0.0217236
0.0149669
0.00594742
0.00271296
0.00773351
0.011561
0.0150111
0.0178205
0.0198864
0.0211309
0.0214555
0.0211137
0.0199261
0.0177801
0.0143554
0.0091956
0.00278951
0.00465803
0.0138775
0.0203641
0.0258437
0.0304193
0.0341861
0.0372495
0.0396994
0.0416268
0.0431197
0.0442613
0.0451218
0.045762
0.0462193
0.0465329
0.046741
0.0468766
0.0469737
0.0470592
0.0471683
0.0472882
0.0992099
0.0925093
0.0834376
0.0756675
0.0693009
0.0638816
0.059038
0.0545061
0.0500746
0.045558
0.0407595
0.0354333
0.0292002
0.0211486
0.00903344
0.00466731
0.0116625
0.0162342
0.0201108
0.0232164
0.0254806
0.0268315
0.0271673
0.0266182
0.0250234
0.0222129
0.0178162
0.0111429
0.00376013
0.00726343
0.0188807
0.026397
0.032705
0.0380677
0.042555
0.0462436
0.0492208
0.0515843
0.053429
0.0548468
0.0559192
0.0567156
0.0572892
0.0576876
0.0579533
0.0581232
0.0582314
0.0583034
0.0583619
0.0583905
0.0992039
0.0951404
0.0889782
0.0827069
0.0769784
0.0717951
0.0669841
0.0623604
0.0577396
0.0529412
0.0477702
0.0419872
0.0352168
0.0264712
0.0117365
0.00626416
0.0146208
0.019688
0.0238462
0.0271791
0.0296229
0.0310983
0.0314928
0.0308761
0.0290881
0.025925
0.0209467
0.0131839
0.00500794
0.00933244
0.02256
0.0307692
0.0375598
0.0433448
0.0482123
0.0522334
0.0554939
0.0580918
0.060128
0.0616984
0.0628894
0.0637748
0.0644152
0.0648624
0.0651614
0.0653505
0.0654632
0.0655244
0.0655528
0.0655399
0.0992304
0.0962769
0.0918418
0.0868727
0.0819434
0.077223
0.0726689
0.0681682
0.0635759
0.0587305
0.0534489
0.0474959
0.0404675
0.031203
0.0142396
0.00759949
0.0170751
0.0225715
0.0269931
0.0305488
0.0331821
0.0348136
0.0353192
0.034739
0.0329106
0.0296162
0.0243901
0.016073
0.0067729
0.0109601
0.0255986
0.0343878
0.0415267
0.0475808
0.052673
0.0568834
0.0603027
0.0630329
0.0651777
0.0668353
0.0680945
0.0690314
0.0697104
0.0701857
0.0705036
0.0707031
0.0708173
0.070871
0.0708814
0.0708481
0.0992745
0.0969202
0.0935351
0.0895583
0.0853774
0.0811768
0.0769766
0.0727127
0.0682742
0.0635211
0.0582809
0.0523131
0.0451631
0.0354582
0.0164859
0.00872894
0.0192044
0.0251296
0.0298316
0.0336216
0.0364591
0.0382674
0.0389236
0.0384488
0.0366832
0.0334057
0.0281455
0.0196492
0.00886231
0.0122824
0.0282158
0.0375522
0.0449852
0.0512275
0.0564525
0.0607633
0.0642624
0.0670575
0.0692553
0.0709559
0.0722489
0.0732117
0.0739101
0.0743994
0.0747266
0.0749308
0.0750447
0.0750937
0.0750934
0.0750487
0.0993261
0.0973582
0.0946549
0.0914147
0.0878723
0.084174
0.0803575
0.0763865
0.0721747
0.067599
0.0624928
0.0566017
0.0494062
0.0393166
0.0184985
0.00971373
0.0210987
0.0274837
0.0324958
0.0365365
0.0395887
0.0415841
0.0424151
0.0420855
0.0404434
0.0372637
0.032065
0.0235129
0.0110129
0.0133169
0.0304949
0.0404012
0.048109
0.0544912
0.0597873
0.0641351
0.0676552
0.0704645
0.0726736
0.0743837
0.0756846
0.0766538
0.0773571
0.0778501
0.0781795
0.0783842
0.0784964
0.0785413
0.0785347
0.078484
0.0993802
0.0976932
0.0954645
0.0927765
0.0897612
0.086518
0.0830803
0.0794239
0.0754779
0.0711306
0.0662161
0.060459
0.0532681
0.0428392
0.0203367
0.0105728
0.0228251
0.0297107
0.0350668
0.039373
0.0426425
0.044825
0.0458389
0.0456727
0.0441865
0.0411462
0.036047
0.0274586
0.0131368
0.0142518
0.0324949
0.0430201
0.0509992
0.0574866
0.0628055
0.0671394
0.0706336
0.0734167
0.0756037
0.0772967
0.078585
0.0795451
0.0802419
0.0807304
0.0810566
0.0812585
0.0813677
0.081409
0.0813983
0.0813449
0.0994347
0.0979681
0.09609
0.0938257
0.0912423
0.0883996
0.0853186
0.081978
0.0783155
0.0742257
0.0695394
0.0639561
0.0568099
0.0460868
0.0220649
0.0113085
0.0244364
0.0318694
0.0376028
0.0421833
0.0456629
0.0480208
0.0492118
0.0492123
0.0478988
0.0450248
0.0400543
0.031464
0.0152487
0.0150596
0.0342855
0.0454783
0.0537278
0.0602878
0.0655851
0.0698604
0.0732887
0.0760119
0.0781495
0.079804
0.0810631
0.0820017
0.082683
0.0831606
0.0834791
0.0836755
0.0837806
0.0838184
0.0838049
0.0837502
0.0994878
0.0982032
0.096597
0.0946659
0.0924381
0.0899435
0.0871899
0.0841547
0.0807797
0.0769625
0.0725288
0.0671521
0.0600913
0.0491275
0.02373
0.0119654
0.0259773
0.0340161
0.040156
0.0450073
0.0486763
0.0511867
0.0525348
0.0526964
0.0515671
0.0488818
0.0440712
0.035494
0.0173621
0.0157543
0.0359551
0.0478525
0.0563592
0.0629497
0.0681779
0.0723515
0.0756783
0.0783131
0.080379
0.0819777
0.0831945
0.0841017
0.0847604
0.0852218
0.0855292
0.0857181
0.0858179
0.085852
0.0858363
0.0857812
0.0995388
0.0984089
0.0970211
0.0953585
0.093426
0.0912328
0.0887758
0.0860295
0.0829375
0.0793995
0.0752365
0.0700985
0.0631735
0.0520373
0.0253652
0.012491
0.0274665
0.0362122
0.0427811
0.0478803
0.0516994
0.0543258
0.0557988
0.0561098
0.055175
0.0527071
0.0481007
0.0395468
0.0195485
0.0163715
0.0376042
0.0502381
0.0589591
0.0655172
0.0706197
0.0746479
0.0778405
0.0803626
0.0823386
0.0838678
0.0850322
0.0859006
0.0865311
0.0869726
0.0872661
0.0874458
0.0875395
0.0875696
0.0875519
0.0874969
0.0995868
0.0985907
0.0973832
0.0959412
0.0942561
0.092324
0.0901335
0.0876567
0.0848385
0.081581
0.077704
0.0728414
0.0661204
0.0549098
0.0270245
0.0129653
0.0289645
0.0385511
0.0455462
0.0508347
0.0547386
0.0574283
0.0589874
0.0594308
0.0586936
0.0564831
0.0521576
0.0436888
0.0220267
0.016962
0.0393856
0.0527612
0.0615985
0.0680273
0.0729344
0.0767715
0.0798
0.0821893
0.0840613
0.0855107
0.0866152
0.0874393
0.0880377
0.0884565
0.0887344
0.0889035
0.0889904
0.0890165
0.0889969
0.0889422
0.0996314
0.0987519
0.0976956
0.0964374
0.0949615
0.0932557
0.0913035
0.0890754
0.0865188
0.0835398
0.0799628
0.0754191
0.0689991
0.0578759
0.028793
0.0134684
0.0306097
0.0411876
0.0485341
0.0538968
0.0577917
0.0604766
0.0620769
0.0626302
0.0620899
0.0601805
0.056248
0.0480393
0.0247219
0.0176381
0.0415822
0.0555993
0.0643488
0.0705052
0.0751342
0.0787343
0.0815724
0.0838129
0.0855706
0.0869334
0.087973
0.0887493
0.0893131
0.0897074
0.0899683
0.0901262
0.090206
0.0902278
0.0902064
0.0901521
0.099672
0.0988943
0.097966
0.0968624
0.0955641
0.0940546
0.0923145
0.0903141
0.0880043
0.0852987
0.0820336
0.0778577
0.0718726
0.0611098
0.0308294
0.0139931
0.0328014
0.0443694
0.051836
0.0570832
0.0608449
0.0634464
0.0650381
0.0656742
0.0653244
0.0637591
0.0603632
0.0527573
0.0280196
0.0189949
0.0447602
0.0589722
0.0672619
0.0729556
0.0772177
0.0805389
0.0831661
0.0852469
0.0868839
0.088156
0.0891282
0.089855
0.0903829
0.0907519
0.0909954
0.0911416
0.0912141
0.0912316
0.0912084
0.0911544
0.0997084
0.0990188
0.0981992
0.097226
0.0960788
0.0947392
0.0931867
0.0913929
0.0893132
0.0868715
0.0839247
0.0801631
0.0747798
0.064842
0.0331514
0.0148324
0.0365153
0.0484484
0.0555253
0.0603852
0.0638697
0.0663065
0.0678398
0.0685268
0.0683512
0.0671576
0.0644504
0.0580528
0.0330679
0.024119
0.0500125
0.0630685
0.0703278
0.0753508
0.0791688
0.0821808
0.0845844
0.0865
0.0880139
0.0891943
0.0900985
0.0907755
0.0912675
0.0916111
0.0918371
0.0919718
0.092037
0.0920503
0.0920253
0.0919716
0.0997402
0.0991262
0.0983983
0.0975348
0.0965158
0.0953224
0.0939344
0.0923258
0.0904576
0.0882652
0.0856319
0.0823136
0.0777023
0.0693841
0.0383691
0.0259057
0.0438555
0.0537124
0.0595795
0.063749
0.0668215
0.0690225
0.070452
0.071155
0.0711248
0.0702982
0.0683643
0.0640119
0.04521
0.0426392
0.0587235
0.0677753
0.073415
0.0776257
0.0809595
0.0836502
0.0858271
0.0875778
0.0889699
0.09006
0.0908976
0.0915259
0.0919829
0.0923017
0.0925108
0.0926343
0.0926924
0.0927017
0.0926749
0.0926214
0.0997671
0.0992166
0.0985651
0.0977931
0.0968818
0.0958131
0.094568
0.0931232
0.0914454
0.0894822
0.0871425
0.0842486
0.0804034
0.074264
0.0586151
0.0512264
0.0547362
0.0596653
0.0637752
0.067068
0.0696431
0.071559
0.0728495
0.0735339
0.0736147
0.0730865
0.0717995
0.0693803
0.064112
0.0636346
0.0674343
0.0721836
0.0762686
0.0796952
0.0825577
0.0849355
0.0868926
0.0884839
0.0897587
0.0907622
0.091536
0.0921178
0.0925415
0.0928369
0.0930299
0.0931429
0.0931945
0.0931999
0.0931714
0.093118
0.0997891
0.0992902
0.0987009
0.0980038
0.0971816
0.0962177
0.0950947
0.0937923
0.0922829
0.0905243
0.0884474
0.085927
0.0827066
0.0781857
0.0702214
0.0641884
0.0635398
0.0652749
0.0678056
0.0702188
0.072275
0.0738842
0.0750136
0.075654
0.0758083
0.0754903
0.0746489
0.0732709
0.0713056
0.0711263
0.0728418
0.0757209
0.0787232
0.0814974
0.0839382
0.0860272
0.0877789
0.0892206
0.0903853
0.0913075
0.0920215
0.09256
0.0929527
0.0932264
0.0934046
0.0935079
0.0935536
0.0935556
0.0935253
0.0934719
0.0998059
0.099347
0.0988064
0.0981687
0.0974184
0.0965404
0.0955197
0.0943389
0.0929751
0.0913951
0.0895469
0.0873443
0.0846255
0.081134
0.07622
0.0717139
0.0698503
0.0701049
0.0714484
0.0730972
0.0746655
0.0759714
0.0769305
0.0775085
0.0777022
0.0775272
0.0769876
0.076185
0.0753263
0.075367
0.0764796
0.078454
0.08074
0.0830045
0.0850865
0.0869192
0.0884845
0.0897892
0.0908528
0.0917002
0.0923595
0.0928583
0.093223
0.093477
0.0936419
0.0937366
0.0937772
0.0937761
0.0937441
0.0936907
0.0998173
0.0993869
0.0988819
0.0982888
0.097594
0.0967843
0.0958469
0.0947672
0.0935266
0.0920991
0.0904454
0.0885071
0.0861842
0.0833673
0.079877
0.0764667
0.0744494
0.074016
0.0745793
0.0756298
0.0767741
0.0777988
0.0785899
0.0790943
0.0793004
0.0792192
0.0788817
0.0784122
0.0780261
0.0781835
0.0790525
0.0805325
0.0823379
0.0842125
0.0859977
0.0876083
0.0890086
0.0901902
0.0911628
0.0919429
0.0925529
0.0930161
0.0933553
0.0935921
0.0937456
0.0938331
0.0938693
0.0938657
0.0938323
0.0937787
0.0998234
0.0994097
0.0989274
0.0983645
0.0977093
0.0969509
0.0960785
0.0950803
0.0939413
0.0926411
0.09115
0.0894279
0.0874144
0.0850649
0.0823609
0.0796845
0.0778228
0.0770759
0.0771782
0.0777792
0.0785737
0.0793503
0.0799839
0.08041
0.0806088
0.0805865
0.0803838
0.0801142
0.0799599
0.0801775
0.0809016
0.0820818
0.0835535
0.0851295
0.0866721
0.0880936
0.0893502
0.0904231
0.0913138
0.0920345
0.0926015
0.093034
0.0933517
0.0935738
0.0937178
0.0937993
0.0938321
0.0938266
0.0937922
0.093738
0.0998241
0.0994154
0.0989427
0.0983957
0.0977646
0.0970406
0.0962156
0.0952801
0.0942222
0.0930255
0.0916676
0.0901206
0.0883485
0.0863382
0.0841263
0.0819476
0.0802927
0.079424
0.0792525
0.0795324
0.0800499
0.0806155
0.0811067
0.0814545
0.081632
0.0816446
0.0815329
0.0813839
0.0813504
0.0815924
0.082215
0.0831929
0.084423
0.0857677
0.0871129
0.0883745
0.0895057
0.0904847
0.0913054
0.0919744
0.0925043
0.0929106
0.0932104
0.0934207
0.0935572
0.0936342
0.0936645
0.0936577
0.0936225
0.0935676
0.0998193
0.0994036
0.0989273
0.0983815
0.0977588
0.0970528
0.0962578
0.095367
0.0943704
0.0932554
0.0920043
0.0905971
0.0890136
0.0872565
0.0853782
0.083544
0.0820754
0.0811763
0.0808344
0.0808974
0.0811987
0.0815886
0.0819546
0.0822279
0.0823778
0.0824078
0.0823503
0.0822782
0.0823052
0.082553
0.0830967
0.083927
0.0849758
0.086138
0.0873195
0.0884482
0.0894742
0.0903725
0.0911332
0.0917585
0.0922571
0.0926419
0.0929274
0.0931286
0.0932597
0.0933338
0.0933627
0.0933552
0.0933194
0.0932638
0.099809
0.099374
0.0988802
0.0983204
0.0976899
0.0969853
0.0962033
0.0953393
0.0943855
0.0933318
0.0921639
0.0908663
0.0894293
0.0878629
0.0862215
0.0846312
0.0833125
0.0824203
0.0819729
0.0818855
0.0820217
0.0822676
0.0825253
0.0827296
0.0828487
0.0828829
0.0828565
0.0828299
0.0828884
0.0831286
0.0836075
0.0843238
0.0852287
0.0862466
0.0872965
0.0883136
0.0892509
0.0900809
0.090791
0.0913797
0.091853
0.0922208
0.0924957
0.0926906
0.0928185
0.0928912
0.0929199
0.0929124
0.0928764
0.0928199
0.0997933
0.0993262
0.0988002
0.0982102
0.0975548
0.0968339
0.0960473
0.0951928
0.0942649
0.0932533
0.0921464
0.0909328
0.0896084
0.0881853
0.0867161
0.0853004
0.0840962
0.0832233
0.0827105
0.0825107
0.0825235
0.0826522
0.082817
0.0829581
0.0830444
0.0830733
0.0830621
0.0830595
0.0831314
0.0833564
0.0837806
0.0844068
0.0851994
0.0860998
0.0870414
0.0879656
0.0888284
0.0896012
0.0902694
0.0908286
0.0912821
0.0916375
0.0919052
0.0920968
0.0922236
0.0922967
0.0923264
0.0923197
0.0922838
0.0922264
0.0997721
0.0992596
0.0986854
0.0980475
0.0973485
0.0965928
0.0957836
0.094921
0.0940004
0.093013
0.0919483
0.0907976
0.0895563
0.0882399
0.0868966
0.0856064
0.0844869
0.0836331
0.0830768
0.0827913
0.0827075
0.0827428
0.0828273
0.0829111
0.0829646
0.0829816
0.082976
0.0829831
0.0830571
0.0832637
0.0836398
0.0841913
0.0848927
0.0856971
0.0865488
0.0873958
0.0881964
0.088922
0.0895562
0.0900924
0.0905313
0.0908787
0.0911429
0.0913338
0.0914619
0.0915372
0.0915691
0.0915641
0.0915288
0.0914705
0.0997456
0.0991733
0.0985331
0.0978272
0.0970638
0.0962531
0.0954023
0.0945137
0.0935835
0.0926034
0.0915626
0.0904528
0.0892717
0.0880358
0.0867826
0.0855805
0.0845215
0.0836822
0.0830934
0.0827414
0.0825762
0.0825347
0.0825521
0.0825834
0.0826052
0.0826045
0.0825946
0.0826047
0.0826749
0.0828607
0.083194
0.0836824
0.0843079
0.0850326
0.0858095
0.0865919
0.087341
0.0880281
0.0886355
0.0891547
0.0895842
0.0899277
0.0901918
0.0903851
0.0905168
0.090596
0.0906316
0.0906292
0.0905951
0.0905359
0.0997138
0.0990662
0.0983396
0.0975423
0.0966906
0.0958021
0.094889
0.093956
0.0929995
0.0920105
0.0909775
0.0898912
0.08875
0.0875675
0.0863778
0.0852382
0.0842229
0.0833912
0.0827743
0.0823659
0.0821324
0.0820218
0.0819801
0.081966
0.081954
0.0819336
0.0819167
0.0819239
0.0819855
0.0821486
0.0824427
0.0828767
0.0834377
0.0840953
0.0848092
0.0855377
0.0862442
0.0869004
0.0874876
0.0879952
0.0884201
0.0887637
0.0890313
0.0892299
0.0893675
0.0894525
0.089493
0.0894945
0.0894627
0.0894024
0.0996769
0.0989365
0.0980994
0.0971825
0.096214
0.0952216
0.0942237
0.0932269
0.0922274
0.0912144
0.0901744
0.0890967
0.0879784
0.0868305
0.0856827
0.0845832
0.0835926
0.0827616
0.0821187
0.0816636
0.0813712
0.0812
0.0811046
0.0810473
0.0810028
0.0809611
0.0809312
0.0809323
0.0809818
0.0811203
0.0813777
0.0817634
0.0822686
0.0828686
0.0835289
0.084212
0.0848835
0.0855155
0.086088
0.0865892
0.0870138
0.0873616
0.087636
0.0878428
0.0879888
0.0880816
0.0881283
0.088135
0.0881061
0.0880451
0.0996348
0.0987817
0.0978041
0.0967325
0.0956127
0.094486
0.0933782
0.0922975
0.0912385
0.0901873
0.0891275
0.0880455
0.0869361
0.0858076
0.084685
0.0836091
0.0826305
0.0817932
0.0811237
0.0806254
0.0802799
0.0800538
0.0799085
0.0798098
0.0797332
0.0796686
0.0796214
0.0796106
0.0796466
0.0797603
0.0799829
0.0803246
0.08078
0.0813296
0.0819436
0.0825882
0.0832308
0.0838439
0.0844069
0.0849062
0.0853346
0.0856903
0.0859749
0.0861928
0.0863498
0.0864524
0.0865072
0.0865201
0.0864947
0.0864334
0.0995879
0.0985978
0.0974408
0.0961693
0.0948553
0.0935585
0.092313
0.0911276
0.0899933
0.0888915
0.087801
0.0867043
0.085593
0.0844719
0.0833615
0.0822965
0.0813198
0.0804701
0.0797723
0.0792325
0.0788374
0.0785601
0.0783674
0.0782284
0.0781198
0.0780305
0.0779641
0.077937
0.0779568
0.0780452
0.0782335
0.0785339
0.078944
0.0794483
0.0800213
0.0806325
0.0812511
0.0818499
0.0824075
0.0829089
0.083345
0.083712
0.0840101
0.0842421
0.0844125
0.0845271
0.0845917
0.0846121
0.0845907
0.0845296
0.0995364
0.0983784
0.0969891
0.095457
0.0938946
0.0923857
0.0909727
0.0896621
0.0884385
0.0872759
0.0861464
0.0850274
0.0839062
0.0827838
0.0816763
0.0806127
0.0796301
0.0787631
0.0780352
0.0774544
0.0770118
0.0766855
0.0764472
0.0762685
0.0761273
0.0760118
0.0759234
0.0758763
0.0758793
0.0759416
0.076095
0.0763555
0.0767229
0.0771853
0.077721
0.0783024
0.0789006
0.0794886
0.0800442
0.0805509
0.080998
0.0813796
0.0816942
0.081943
0.0821295
0.0822582
0.0823343
0.0823633
0.0823467
0.0822859
0.0994808
0.0981124
0.0964137
0.0945376
0.0926581
0.090889
0.0892779
0.0878237
0.0865001
0.0852699
0.0840968
0.0829515
0.0818161
0.0806871
0.0795762
0.0785078
0.0775141
0.0766261
0.0758667
0.0752453
0.0747565
0.0743828
0.0740998
0.0738818
0.0737074
0.0735642
0.0734513
0.0733789
0.0733615
0.0734004
0.0735194
0.0737407
0.0740666
0.0744889
0.0749893
0.0755432
0.0761231
0.0767026
0.0772586
0.0777732
0.0782337
0.0786326
0.0789664
0.0792347
0.0794396
0.0795845
0.0796737
0.0797125
0.0797009
0.0796407
0.0994222
0.0977789
0.0956518
0.0933134
0.091031
0.0889497
0.0871127
0.085502
0.0840732
0.0827745
0.0815582
0.080387
0.079237
0.0781
0.0769834
0.0759073
0.0748998
0.0739893
0.0731981
0.0725369
0.0720033
0.0715837
0.071257
0.071
0.0707922
0.0706199
0.0704807
0.0703821
0.0703396
0.0703544
0.07044
0.0706216
0.0709062
0.0712886
0.0717543
0.0722812
0.0728436
0.0734154
0.0739728
0.0744966
0.0749723
0.0753902
0.0757452
0.0760352
0.0762605
0.0764232
0.0765269
0.0765762
0.0765696
0.0765098
0.0993626
0.0973346
0.0945822
0.0916126
0.0888258
0.0863833
0.0843025
0.0825331
0.081004
0.0796439
0.0783918
0.077201
0.0760413
0.0748998
0.0737794
0.0726967
0.0716763
0.0707447
0.0699235
0.0692247
0.0686488
0.0681854
0.0678166
0.0675215
0.0672805
0.0670788
0.0669122
0.066786
0.0667127
0.0667056
0.0667603
0.0668997
0.0671415
0.067483
0.0679127
0.0684115
0.0689553
0.0695184
0.0700765
0.070609
0.0710998
0.0715372
0.0719142
0.0722268
0.0724738
0.0726556
0.0727745
0.0728343
0.0728321
0.0727719
0.0993062
0.0966776
0.0929531
0.0891169
0.0857217
0.082889
0.0805699
0.0786596
0.0770508
0.0756489
0.0743782
0.0731824
0.0720251
0.0708888
0.0697728
0.0686902
0.0676629
0.0667158
0.06587
0.0651389
0.0645256
0.0640226
0.063615
0.063284
0.0630116
0.0627811
0.0625872
0.0624328
0.0623292
0.0622951
0.0623207
0.0624185
0.0626152
0.0629129
0.0633035
0.0637708
0.0642922
0.0648429
0.0653981
0.065936
0.0664391
0.0668939
0.0672915
0.0676259
0.0678942
0.068095
0.0682287
0.068298
0.0682974
0.068233
0.0992632
0.0955241
0.0901893
0.0851965
0.0811337
0.0779393
0.0754341
0.0734353
0.0717928
0.0703876
0.0691303
0.0679565
0.0668247
0.0657135
0.0646193
0.0635525
0.0625327
0.0615832
0.0607251
0.059973
0.0593322
0.0587982
0.0583587
0.0579969
0.0576976
0.0574414
0.0572219
0.0570404
0.0569068
0.0568422
0.0568444
0.0569005
0.0570468
0.0572954
0.0576412
0.0580704
0.0585619
0.0590917
0.0596352
0.0601702
0.0606777
0.0611432
0.0615556
0.0619076
0.0621938
0.0624107
0.0625566
0.0626321
0.062627
0.0625476
0.0992511
0.0928954
0.0848313
0.0784791
0.073863
0.0704696
0.067921
0.0659473
0.06436
0.0630226
0.0618369
0.0607343
0.0596709
0.0586238
0.0575873
0.0565696
0.0555885
0.0546658
0.0538223
0.0530735
0.0524266
0.05188
0.0514241
0.0510429
0.050727
0.0504522
0.0502122
0.0500074
0.049846
0.0497446
0.049721
0.0497462
0.0498382
0.0500297
0.0503202
0.050698
0.0511436
0.0516345
0.0521473
0.0526603
0.0531543
0.0536138
0.0540269
0.0543841
0.0546783
0.0549033
0.0550539
0.0551276
0.0551061
0.054988
0.099284
0.0844875
0.0724985
0.0652982
0.0607832
0.0576621
0.0554007
0.0536917
0.0523409
0.0512146
0.0502194
0.0492924
0.0483931
0.0475001
0.0466077
0.0457223
0.0448596
0.0440389
0.0432794
0.0425966
0.0419989
0.0414871
0.0410551
0.040685
0.0403777
0.0401011
0.0398534
0.039636
0.0394553
0.0393236
0.0392704
0.039271
0.0392998
0.0394141
0.0396242
0.0399181
0.0402785
0.0406863
0.0411216
0.0415653
0.0420002
0.0424116
0.0427872
0.0431173
0.0433915
0.0436023
0.0437367
0.0437881
0.043723
0.0434998
0.0963835
0.0506311
0.0376655
0.0324841
0.0298421
0.0282269
0.0271258
0.0263258
0.0257177
0.0252273
0.0248018
0.024407
0.0240202
0.0236282
0.0232267
0.0228178
0.0224089
0.0220101
0.0216322
0.0212846
0.0209732
0.0206984
0.0204637
0.0202453
0.0200747
0.0199191
0.0197728
0.0196362
0.0195134
0.0194089
0.0193416
0.0192985
0.0192857
0.0192992
0.0193524
0.019457
0.0195993
0.0197689
0.0199557
0.0201499
0.0203432
0.0205272
0.0206965
0.0208435
0.0209659
0.0210508
0.0211061
0.0210963
0.0210378
0.0207842
)
;

boundaryField
{
    floor
    {
        type            kqRWallFunction;
        value           nonuniform List<scalar> 
50
(
0.0963836
0.0503077
0.0366308
0.0305396
0.0268767
0.0240749
0.0216992
0.0195567
0.0175461
0.0156176
0.0137878
0.011826
0.00940319
0.00602857
0.00237301
0.00115473
0.00331985
0.00536599
0.00717454
0.00861843
0.0096507
0.0103125
0.0104849
0.0103573
0.00975649
0.00864101
0.00692133
0.00452452
0.00203065
0.00263651
0.00645521
0.00965027
0.0123162
0.0145932
0.0164111
0.0178511
0.0189746
0.0198301
0.0204704
0.0209506
0.0213417
0.0216818
0.0219384
0.0221201
0.0222499
0.0223493
0.0224338
0.0225418
0.022674
0.0229478
)
;
    }
    ceiling
    {
        type            kqRWallFunction;
        value           nonuniform List<scalar> 
50
(
0.0963835
0.0506311
0.0376655
0.0324841
0.0298421
0.0282269
0.0271258
0.0263258
0.0257177
0.0252273
0.0248018
0.024407
0.0240202
0.0236282
0.0232267
0.0228178
0.0224089
0.0220101
0.0216322
0.0212846
0.0209732
0.0206984
0.0204637
0.0202453
0.0200747
0.0199191
0.0197728
0.0196362
0.0195134
0.0194089
0.0193416
0.0192985
0.0192857
0.0192992
0.0193524
0.019457
0.0195993
0.0197689
0.0199557
0.0201499
0.0203432
0.0205272
0.0206965
0.0208435
0.0209659
0.0210508
0.0211061
0.0210963
0.0210378
0.0207842
)
;
    }
    inlet
    {
        type            fixedValue;
        value           uniform 0.1;
    }
    outlet
    {
        type            zeroGradient;
    }
    fixedWalls
    {
        type            empty;
    }
    baffleFacesThermoBaffle1D_master
    {
        type            kqRWallFunction;
        value           nonuniform List<scalar> 
16
(
0.00115473
0.00271296
0.00466731
0.00626416
0.00759949
0.00872894
0.00971373
0.0105728
0.0113085
0.0119654
0.012491
0.0129653
0.0134684
0.0139931
0.0148324
0.0259057
)
;
    }
    baffleFacesThermoBaffle1D_slave
    {
        type            kqRWallFunction;
        value           nonuniform List<scalar> 
16
(
0.00237301
0.00594742
0.00903344
0.0117365
0.0142396
0.0164859
0.0184985
0.0203367
0.0220649
0.02373
0.0253652
0.0270245
0.028793
0.0308294
0.0331514
0.0383691
)
;
    }
    baffleFacesThermoBaffle3D_master
    {
        type            kqRWallFunction;
        value           nonuniform List<scalar> 
16
(
0.00263651
0.00465803
0.00726343
0.00933244
0.0109601
0.0122824
0.0133169
0.0142518
0.0150596
0.0157543
0.0163715
0.016962
0.0176381
0.0189949
0.024119
0.0426392
)
;
    }
    baffleFacesThermoBaffle3D_slave
    {
        type            kqRWallFunction;
        value           nonuniform List<scalar> 
16
(
0.00203065
0.00278951
0.00376013
0.00500794
0.0067729
0.00886231
0.0110129
0.0131368
0.0152487
0.0173621
0.0195485
0.0220267
0.0247219
0.0280196
0.0330679
0.04521
)
;
    }
}


// ************************************************************************* //
