/*--------------------------------*- C++ -*----------------------------------*\
| =========                 |                                                 |
| \\      /  F ield         | OpenFOAM: The Open Source CFD Toolbox           |
|  \\    /   O peration     | Version:  v1906                                 |
|   \\  /    A nd           | Web:      www.OpenFOAM.com                      |
|    \\/     M anipulation  |                                                 |
\*---------------------------------------------------------------------------*/
FoamFile
{
    version     2.0;
    format      ascii;
    class       volScalarField;
    location    "500";
    object      nut;
}
// * * * * * * * * * * * * * * * * * * * * * * * * * * * * * * * * * * * * * //

dimensions      [0 2 -1 0 0 0 0];


internalField   nonuniform List<scalar> 
2000
(
0.000435739
0.000314804
0.000268621
0.000245265
0.000230077
0.000217741
0.000206703
0.000196216
0.000185836
0.000175303
0.000164705
0.000152532
0.000136007
0.000108904
8.4091e-05
5.85515e-05
8.06327e-05
0.000102507
0.000118534
0.00012992
0.000137485
0.000142128
0.000143317
0.000142455
0.000138272
0.000130145
0.000116498
9.42392e-05
7.77747e-05
8.85673e-05
0.000112577
0.000137683
0.000155537
0.000169313
0.000179555
0.000187275
0.000193087
0.000197401
0.000200572
0.000202918
0.00020481
0.000206444
0.00020767
0.000208536
0.000209155
0.000209628
0.000210031
0.000210543
0.000211166
0.000212447
0.00855068
0.00366841
0.0028979
0.00261253
0.00242616
0.00227307
0.00213865
0.00201702
0.00190325
0.00179227
0.0016741
0.00154117
0.00135417
0.000932306
0.000173063
0.00011658
0.000503012
0.000709385
0.000912609
0.00109666
0.0012484
0.00136364
0.00141692
0.00143687
0.00140563
0.00130038
0.00105679
0.000645524
0.000118416
0.000153123
0.000777432
0.00115564
0.00145241
0.00167194
0.00184131
0.00197363
0.00207703
0.00215697
0.00221804
0.00226402
0.00229573
0.00231513
0.00232703
0.00233392
0.00233758
0.00233929
0.00234059
0.00234208
0.00234671
0.00234929
0.031038
0.0116185
0.00798226
0.00663673
0.00589686
0.00538072
0.00497508
0.00462685
0.00430591
0.00398752
0.00364038
0.00321931
0.00261673
0.00158177
0.000213289
0.000152934
0.00104978
0.00153988
0.00195326
0.00230767
0.00258961
0.00279972
0.00288719
0.00287318
0.00271188
0.00235004
0.00176682
0.000912488
0.000137271
0.000191122
0.00146002
0.00230512
0.00294946
0.00346419
0.0038817
0.00422003
0.00449274
0.00471047
0.0048823
0.00501562
0.00511514
0.00518615
0.00523619
0.00527069
0.00529397
0.00530946
0.00532031
0.00532854
0.00533646
0.00533883
0.0509169
0.0225343
0.0147834
0.0116802
0.0100195
0.00892257
0.0081077
0.00743091
0.00681805
0.0062134
0.00555691
0.00476411
0.00368622
0.00208737
0.000243116
0.000177188
0.00144422
0.00227177
0.00289826
0.00340808
0.00380229
0.00406766
0.00415801
0.00407148
0.00375875
0.00316851
0.00226119
0.00102925
0.000158226
0.000216617
0.00192351
0.00324781
0.00426804
0.00510476
0.0058022
0.00638248
0.00686205
0.0072546
0.00757239
0.00782589
0.00802353
0.00817378
0.00828616
0.00836867
0.00842811
0.00847009
0.00849955
0.0085199
0.00853299
0.00853528
0.0628998
0.0335147
0.0224051
0.0173612
0.0145724
0.0127576
0.0114211
0.0103347
0.00936229
0.00841009
0.00738637
0.00617497
0.00460989
0.00249719
0.000267795
0.00019517
0.00173512
0.00289344
0.00371835
0.00437161
0.00486139
0.00517014
0.00525294
0.00509425
0.00463945
0.00384179
0.00267234
0.00117072
0.000184034
0.000234741
0.00222401
0.0039841
0.00537886
0.00654918
0.00754501
0.00839101
0.00910431
0.00969989
0.0101917
0.0105926
0.0109137
0.0111662
0.0113616
0.0115099
0.0116202
0.0117006
0.0117572
0.0117948
0.0118158
0.0118183
0.0699806
0.0429607
0.0299773
0.0232722
0.0193495
0.016753
0.0148387
0.0132839
0.0119013
0.0105554
0.00912431
0.00746967
0.00542736
0.00283605
0.000288143
0.000209177
0.00195729
0.00339478
0.00442464
0.00521235
0.00579059
0.00614242
0.00621687
0.00599656
0.00542305
0.00445568
0.00308078
0.00137589
0.000210642
0.000248494
0.00243442
0.00454772
0.00629853
0.00780216
0.00910691
0.0102356
0.0112035
0.0120248
0.012714
0.0132852
0.0137515
0.0141262
0.0144226
0.0146525
0.014827
0.0149561
0.0150477
0.015108
0.0151398
0.0151429
0.074424
0.0505605
0.0369426
0.0290596
0.0241445
0.020788
0.0182779
0.0162278
0.0144023
0.0126316
0.0107687
0.00866217
0.00615209
0.00312615
0.000305225
0.000220668
0.00213318
0.00379847
0.00501672
0.00594122
0.00661209
0.00701326
0.00709243
0.00682699
0.00615919
0.00505362
0.00350913
0.00162119
0.000234931
0.000258744
0.00257128
0.004975
0.00705136
0.00888029
0.0104984
0.011921
0.0131588
0.0142236
0.015129
0.0158895
0.0165196
0.0170336
0.0174462
0.0177712
0.0180215
0.0182085
0.018342
0.0184298
0.0184754
0.0184798
0.0773992
0.056536
0.0430612
0.0344806
0.028786
0.0247493
0.0216653
0.0191166
0.0168349
0.0146241
0.0123182
0.00976005
0.00680213
0.00337827
0.000320034
0.000230226
0.00226342
0.00412174
0.00551557
0.00657834
0.00734952
0.00781093
0.00791091
0.00761809
0.00687699
0.00565472
0.00395731
0.00188606
0.000256673
0.000267661
0.00264851
0.00529448
0.00766578
0.00980634
0.0117358
0.0134578
0.0149754
0.0162963
0.017432
0.0183965
0.0192046
0.0198717
0.0204134
0.0208448
0.0211803
0.0214332
0.0216148
0.0217342
0.0217961
0.0218027
0.0795006
0.0612218
0.048299
0.0394035
0.0331522
0.0285459
0.0249372
0.0219083
0.0191744
0.0165223
0.0137747
0.0107741
0.00739002
0.00359982
0.000333359
0.000238109
0.00235635
0.00437837
0.00593637
0.00714111
0.00802298
0.00855799
0.00869512
0.0083916
0.00759404
0.00626825
0.00442416
0.00216816
0.000276606
0.000275133
0.00268955
0.00553252
0.00816731
0.0106039
0.0128384
0.0148602
0.0166617
0.0182453
0.01962
0.0207982
0.0217946
0.0226247
0.023305
0.0238515
0.0242799
0.024605
0.0248394
0.0249938
0.0250742
0.0250834
0.0810468
0.0649187
0.0527233
0.0437815
0.0371706
0.0321132
0.0280452
0.0245705
0.0214029
0.0183215
0.0151441
0.011717
0.00792874
0.00379819
0.000345712
0.000244929
0.00242032
0.00457964
0.00629335
0.00764595
0.00865026
0.0092731
0.00946189
0.00916287
0.00832263
0.00690021
0.00490669
0.00245647
0.00029521
0.000281396
0.00271135
0.00571067
0.00858149
0.0112987
0.01383
0.0161455
0.0182281
0.0200746
0.0216906
0.0230867
0.0242766
0.0252758
0.0261005
0.0267677
0.0272942
0.0276957
0.0279865
0.0281784
0.0282786
0.0282906
0.0822203
0.0678622
0.0564376
0.047621
0.0408084
0.0354116
0.0309563
0.0270814
0.0235105
0.0200233
0.0164373
0.0126051
0.00843382
0.00398255
0.000357425
0.000250274
0.00245612
0.00473312
0.00660028
0.00810938
0.00924798
0.00997227
0.0102248
0.00994414
0.00907346
0.00755787
0.00540559
0.00273877
0.000313294
0.000286842
0.00271996
0.00584495
0.00893361
0.0119191
0.0147351
0.017333
0.0196871
0.0217893
0.0236419
0.0252537
0.026637
0.027806
0.0287771
0.0295674
0.0301941
0.0306743
0.0310233
0.0312539
0.0313747
0.0313897
0.0831319
0.0702278
0.0595484
0.0509564
0.0440604
0.0384221
0.0336517
0.029429
0.025495
0.0216354
0.017671
0.0134601
0.00892549
0.0041642
0.000368931
0.00025498
0.00246092
0.00484632
0.0068745
0.00854947
0.00983291
0.0106691
0.0109963
0.0107469
0.00985652
0.00825298
0.00593107
0.00301422
0.000332597
0.000291953
0.00271391
0.00594938
0.00925267
0.012498
0.0155831
0.0184449
0.0210523
0.0233945
0.0254716
0.0272901
0.0288602
0.030195
0.0313099
0.0322216
0.032948
0.0335066
0.0339137
0.0341833
0.0343246
0.0343425
0.0838519
0.0721437
0.062151
0.0538334
0.046938
0.0411401
0.0361234
0.0316093
0.0273598
0.023171
0.0188679
0.0143117
0.00943292
0.00436048
0.00038081
0.000259884
0.00243076
0.00493487
0.00713933
0.00899057
0.010424
0.0113774
0.0117872
0.0115812
0.0106837
0.00900286
0.00650461
0.00330526
0.000352415
0.000297696
0.00268798
0.00604534
0.00957892
0.0130772
0.0164079
0.019505
0.0223376
0.0248952
0.0271764
0.0291853
0.0309296
0.0324204
0.0336716
0.0346995
0.0355215
0.0361557
0.0366191
0.0369264
0.0370876
0.0371079
0.084427
0.073703
0.0643246
0.0562986
0.0494608
0.0435699
0.0383706
0.0336232
0.0291126
0.024647
0.0200565
0.0152004
0.0100019
0.00460084
0.000394042
0.000264898
0.00238906
0.00503215
0.00743224
0.00946383
0.011045
0.0121115
0.0126072
0.012456
0.0115685
0.00983239
0.0071618
0.00363807
0.000375239
0.00030891
0.00264001
0.00618006
0.00997565
0.0137098
0.0172494
0.0205377
0.0235556
0.0262945
0.0287513
0.0309271
0.0328266
0.0344581
0.0358337
0.0369682
0.0378787
0.0385832
0.039099
0.0394415
0.0396211
0.0396434
0.0848886
0.0749728
0.0661322
0.0583939
0.0516501
0.0457195
0.0403956
0.0354738
0.0307615
0.0260813
0.0212691
0.016178
0.0107114
0.00496087
0.00040861
0.000272707
0.00237078
0.00520687
0.00781542
0.0100116
0.0117204
0.0128882
0.0134619
0.013378
0.012526
0.0107793
0.00797637
0.00407133
0.000407701
0.000348101
0.00261262
0.00646906
0.0105452
0.0144653
0.0181435
0.0215634
0.0247156
0.0275927
0.030189
0.0325017
0.0345314
0.0362833
0.0377665
0.0389944
0.039983
0.0407499
0.0413126
0.0416864
0.0418823
0.041906
0.0852581
0.076001
0.0676215
0.0601538
0.053525
0.0475967
0.0422008
0.0371626
0.0323122
0.027488
0.0225369
0.0173125
0.0116819
0.00560765
0.00043948
0.000360425
0.00247702
0.00561201
0.00838605
0.0106858
0.0124768
0.0137182
0.0143577
0.0143486
0.0135608
0.0118777
0.00906345
0.00480255
0.000476749
0.000462944
0.00292738
0.00721419
0.0114394
0.0154034
0.0191201
0.0225945
0.0258199
0.028785
0.0314788
0.0338929
0.036023
0.0378702
0.0394406
0.0407452
0.0417987
0.042618
0.0432201
0.0436203
0.0438298
0.0438543
0.0855501
0.0768211
0.0688275
0.061604
0.0550997
0.0492064
0.0437852
0.0386871
0.0337633
0.0288713
0.0238768
0.0186573
0.0131243
0.00732391
0.00196559
0.00208748
0.00396105
0.00664152
0.00926904
0.011534
0.0133333
0.0146071
0.0152969
0.0153575
0.0146708
0.0131475
0.0106297
0.00707504
0.00314791
0.00324884
0.00546617
0.00896147
0.0127801
0.0165564
0.0201854
0.0236291
0.0268618
0.0298609
0.0326063
0.0350825
0.0372795
0.0391935
0.0408273
0.0421892
0.0432921
0.0441518
0.0447846
0.0452055
0.0454253
0.0454499
0.0857741
0.0774557
0.0697737
0.0627617
0.0563825
0.0505485
0.0451432
0.0400381
0.0351044
0.0302197
0.0252749
0.0201852
0.0149278
0.00965882
0.00496536
0.00462961
0.00601506
0.00814385
0.0104582
0.0125627
0.0142918
0.0155509
0.0162679
0.0163926
0.0158305
0.0145212
0.0124015
0.00958675
0.00671544
0.00663738
0.00823269
0.0110743
0.0143993
0.0178668
0.0213106
0.0246471
0.0278243
0.0308033
0.0335535
0.0360508
0.0382789
0.0402292
0.0419006
0.0432984
0.0444335
0.0453201
0.045974
0.0464089
0.0466355
0.0466597
0.085936
0.0779184
0.0704739
0.0636356
0.0573747
0.0516174
0.0462629
0.0411991
0.036314
0.0315053
0.0266896
0.0218202
0.0169287
0.0122272
0.00831878
0.00751667
0.00832466
0.0099501
0.0118723
0.0137369
0.0153326
0.0165334
0.0172518
0.0174297
0.0170003
0.0159229
0.0142097
0.0120557
0.0100631
0.00986195
0.0110045
0.0132817
0.0161288
0.0192444
0.0224435
0.0256136
0.0286805
0.0315898
0.0342994
0.0367773
0.0390004
0.0409554
0.0426377
0.0440492
0.0451982
0.0460977
0.0467623
0.0472043
0.047434
0.0474573
0.0860389
0.0782157
0.0709337
0.0642266
0.0580711
0.0524015
0.0471268
0.0421463
0.0373616
0.032687
0.0280619
0.02347
0.0189777
0.0148151
0.0115285
0.0104364
0.0107087
0.0118832
0.0134128
0.0149999
0.0164192
0.0175264
0.0182214
0.0184369
0.0181378
0.0172831
0.0159407
0.0143282
0.0129499
0.0127322
0.0135824
0.0154112
0.017833
0.020596
0.0235212
0.0264845
0.0293976
0.0321937
0.0348216
0.0372418
0.0394252
0.0413541
0.0430196
0.0444216
0.0455662
0.0464645
0.0471294
0.047572
0.0478013
0.0478234
0.0860832
0.0783481
0.0711511
0.0645288
0.0584604
0.0528838
0.0477121
0.0428505
0.0382094
0.0337157
0.0293252
0.0250414
0.0209471
0.0172609
0.0144222
0.0131609
0.0130589
0.0138158
0.0149832
0.0162826
0.0175036
0.0184931
0.019144
0.0193839
0.0191955
0.0185418
0.0175173
0.0163286
0.0153715
0.0151984
0.0158622
0.0173494
0.0194075
0.021838
0.024481
0.0272129
0.02994
0.0325875
0.0350967
0.037424
0.0395362
0.0414108
0.0430354
0.0444073
0.0455302
0.0464136
0.0470686
0.047505
0.0477308
0.0477512
0.0860672
0.0783106
0.0711175
0.0645296
0.0585261
0.0530432
0.0479923
0.0432785
0.0388162
0.034539
0.0304122
0.0264489
0.0227334
0.019455
0.0169415
0.0156018
0.0152408
0.0156476
0.0164912
0.0175155
0.0185329
0.0193913
0.0199823
0.0202337
0.0201297
0.0196489
0.0188868
0.0180212
0.0173578
0.0172488
0.0177938
0.019022
0.0207741
0.0229003
0.0252656
0.0277538
0.0302717
0.0327426
0.0351057
0.0373117
0.0393246
0.041119
0.0426801
0.0440025
0.0450881
0.0459439
0.0465797
0.0470037
0.0472228
0.0472416
0.0859873
0.0780928
0.0708177
0.0642106
0.0582481
0.0528565
0.0479394
0.0433964
0.0391405
0.0351055
0.0312601
0.0276183
0.0242557
0.0213256
0.0190626
0.0177036
0.0171674
0.0172947
0.0178571
0.0186347
0.0194541
0.0201767
0.0206973
0.0209462
0.0209046
0.0205645
0.0200092
0.0193888
0.0189328
0.0188868
0.0193522
0.0203809
0.0218761
0.0237276
0.0258249
0.028067
0.0303627
0.0326394
0.0348338
0.0368954
0.0387862
0.0404789
0.0419571
0.0432132
0.0442472
0.0450644
0.0456727
0.0460789
0.0462887
0.0463057
0.0858374
0.0776789
0.0702307
0.0635485
0.0575997
0.0522958
0.0475241
0.0431728
0.039143
0.0353689
0.0318145
0.0284887
0.0254531
0.0228253
0.0207696
0.0194303
0.0187813
0.0186889
0.0190193
0.0195806
0.020217
0.0208061
0.0212505
0.0214844
0.0214855
0.0212545
0.0208584
0.0204205
0.0201137
0.0201188
0.0205262
0.0213965
0.0226722
0.0242778
0.0261236
0.0281212
0.0301913
0.032262
0.0342722
0.0361722
0.0379233
0.0394974
0.0408769
0.0420529
0.0430238
0.043793
0.0443669
0.0447507
0.0449489
0.0449644
0.0856091
0.0770471
0.069329
0.0625153
0.0565559
0.0513367
0.0467205
0.0425756
0.0387925
0.0352905
0.0320308
0.029013
0.0262816
0.0239224
0.0220499
0.0207557
0.0200339
0.0197898
0.0199295
0.0203028
0.0207767
0.0212401
0.0216065
0.0218154
0.0218418
0.0216918
0.0214145
0.02111
0.0209097
0.0209512
0.0213115
0.0220519
0.0231403
0.024525
0.0261349
0.027898
0.0297423
0.0316017
0.033419
0.0351462
0.0367453
0.0381886
0.0394578
0.0405433
0.0414419
0.0421558
0.0426898
0.0430476
0.0432326
0.0432467
0.0852904
0.0761682
0.0680779
0.0610785
0.0550894
0.0499567
0.045508
0.0415849
0.0380594
0.0348405
0.0318765
0.0291584
0.0267117
0.0245975
0.0228949
0.0216637
0.0209051
0.0205578
0.0205472
0.020763
0.0210953
0.0214454
0.0217353
0.021912
0.0219497
0.0218581
0.0216669
0.0214575
0.0213315
0.0213959
0.0217136
0.0223432
0.0232682
0.0244531
0.0258465
0.027386
0.0290096
0.0306585
0.0322797
0.0338284
0.0352685
0.0365733
0.0377247
0.0387124
0.0395325
0.0401859
0.0406759
0.0410051
0.0411755
0.0411885
0.084865
0.0750034
0.0664342
0.0592019
0.0531734
0.0481369
0.0438723
0.0401873
0.036932
0.0340013
0.0313331
0.028904
0.0267265
0.0248424
0.0233021
0.022147
0.0213817
0.0209692
0.020844
0.0209335
0.0211442
0.0213944
0.0216137
0.0217545
0.0217945
0.0217374
0.0216061
0.0214652
0.0213901
0.0214653
0.0217421
0.0222736
0.0230547
0.0240621
0.0252553
0.0265845
0.0279966
0.02944
0.030867
0.0322366
0.0335156
0.0346785
0.0357081
0.0365941
0.0373319
0.0379214
0.0383649
0.0386636
0.0388188
0.0388308
0.0843103
0.0735013
0.0643452
0.0568456
0.0507837
0.045865
0.0418077
0.0383798
0.0354069
0.0327688
0.0303924
0.0282443
0.0263249
0.0246555
0.023274
0.0222072
0.0214608
0.0210115
0.0208055
0.0207959
0.0209064
0.021069
0.0212243
0.0213298
0.0213634
0.0213259
0.0212367
0.0211421
0.0210992
0.021175
0.0214121
0.0218575
0.0225109
0.0233579
0.0243684
0.0255022
0.0267148
0.0279614
0.0292002
0.0303945
0.031514
0.0325355
0.0334428
0.0342259
0.0348799
0.035404
0.0357994
0.0360669
0.0362067
0.0362177
0.0835943
0.0715933
0.0617468
0.0539678
0.047901
0.0431375
0.0393198
0.0361713
0.033493
0.031151
0.0290629
0.0271869
0.0255129
0.0240527
0.022826
0.021854
0.0211436
0.0206812
0.0204254
0.0203429
0.0203737
0.0204634
0.0205624
0.0206337
0.0206564
0.0206282
0.0205653
0.0205019
0.0204781
0.020547
0.0207455
0.021113
0.0216528
0.0223564
0.0232013
0.0241557
0.0251827
0.0262442
0.0273041
0.02833
0.0292952
0.0301788
0.0309661
0.0316475
0.0322183
0.032677
0.033024
0.0332599
0.033384
0.0333942
0.0826705
0.0691871
0.0585624
0.0505274
0.0445147
0.0399632
0.0364267
0.0335832
0.0312118
0.029168
0.0273633
0.02575
0.0243107
0.0230482
0.0219753
0.0211071
0.0204488
0.0199914
0.0197081
0.019575
0.0195461
0.0195776
0.0196292
0.0196694
0.0196788
0.0196532
0.0196058
0.0195608
0.0195475
0.0196051
0.0197673
0.0200648
0.0205037
0.0210795
0.0217758
0.0225673
0.0234241
0.0243141
0.0252066
0.0260739
0.0268925
0.0276443
0.0283161
0.0288991
0.0293889
0.0297835
0.0300829
0.0302873
0.0303955
0.0304048
0.0814691
0.066157
0.0547029
0.0464894
0.0406289
0.0363667
0.0331615
0.0306502
0.0285966
0.0268511
0.0253229
0.0239618
0.0227463
0.0216734
0.0207506
0.0199885
0.0193923
0.0189582
0.0186671
0.0185035
0.0184323
0.0184197
0.0184332
0.0184466
0.0184428
0.0184166
0.0183768
0.0183422
0.0183331
0.0183775
0.0185057
0.018741
0.0190912
0.0195542
0.0201183
0.0207638
0.0214663
0.0221997
0.0229381
0.0236581
0.0243399
0.0249677
0.0255302
0.0260197
0.0264319
0.0267648
0.0270179
0.0271916
0.0272838
0.0272919
0.0798807
0.0623327
0.0500721
0.041835
0.0362692
0.0323924
0.0295731
0.0274199
0.0256917
0.0242412
0.0229799
0.0218588
0.0208549
0.0199623
0.019185
0.0185306
0.0180046
0.0176062
0.0173231
0.0171458
0.0170479
0.0170041
0.016989
0.0169812
0.0169657
0.0169372
0.0169006
0.0168712
0.0168634
0.0168946
0.0169915
0.0171723
0.0174452
0.0178098
0.0182576
0.0187736
0.0193383
0.0199304
0.0205288
0.0211142
0.0216699
0.0221831
0.0226438
0.0230457
0.0233848
0.0236591
0.0238681
0.0240118
0.0240881
0.0240947
0.0777252
0.0574864
0.0445804
0.0365776
0.031493
0.0281082
0.0257271
0.0239518
0.0225506
0.0213864
0.0203789
0.019483
0.018677
0.0179539
0.0173158
0.0167686
0.0163177
0.0159637
0.0157026
0.0155249
0.0154139
0.0153508
0.015316
0.0152927
0.0152684
0.0152375
0.0152028
0.0151741
0.0151655
0.0151864
0.0152558
0.01539
0.0155965
0.0158762
0.0162231
0.0166257
0.0170687
0.0175351
0.018008
0.0184718
0.0189133
0.0193217
0.0196891
0.0200102
0.0202814
0.0205011
0.0206684
0.0207835
0.020844
0.0208484
0.0746872
0.0513281
0.0381786
0.0307873
0.026399
0.0236083
0.021705
0.0203155
0.0192333
0.0183403
0.0175686
0.0168801
0.016256
0.0156899
0.0151829
0.0147403
0.0143662
0.0140649
0.0138338
0.0136672
0.0135546
0.0134826
0.0134366
0.0134037
0.0133739
0.0133418
0.0133086
0.0132812
0.0132707
0.0132831
0.0133294
0.0134244
0.0135749
0.0137824
0.0140429
0.0143476
0.0146845
0.0150405
0.0154024
0.0157581
0.0160973
0.0164116
0.0166947
0.0169424
0.0171517
0.0173211
0.0174497
0.0175378
0.0175827
0.0175844
0.0701769
0.0435373
0.0309217
0.0246204
0.0211357
0.0190122
0.0176013
0.0165872
0.0158041
0.0151591
0.0146001
0.0140976
0.0136371
0.0132134
0.0128275
0.0124844
0.0121881
0.0119426
0.011748
0.0116016
0.0114969
0.0114248
0.0113751
0.0113382
0.0113066
0.0112751
0.0112441
0.0112183
0.0112052
0.0112123
0.0112417
0.0113041
0.0114083
0.0115556
0.0117432
0.0119646
0.0122105
0.0124709
0.0127361
0.012997
0.0132461
0.0134772
0.0136856
0.0138679
0.0140218
0.0141459
0.0142394
0.0143025
0.0143325
0.0143308
0.0630307
0.0339094
0.023072
0.0183449
0.0158996
0.0144594
0.0135184
0.012847
0.012329
0.0119003
0.0115256
0.0111842
0.0108663
0.0105687
0.0102926
0.0100417
0.00982028
0.009632
0.0094784
0.00935864
0.00926919
0.00920436
0.00915725
0.00912136
0.00909142
0.0090626
0.00903505
0.00901184
0.00899821
0.00900097
0.00901856
0.00905579
0.00912251
0.0092205
0.00934808
0.00949998
0.00966893
0.00984799
0.0100304
0.01021
0.0103815
0.0105407
0.0106843
0.0108098
0.0109155
0.011
0.0110625
0.0111034
0.0111193
0.0111135
0.0509898
0.0227731
0.0152079
0.0123368
0.0109194
0.0100982
0.00956162
0.00917622
0.00887594
0.00862403
0.00839981
0.00819138
0.00799302
0.00780315
0.00762298
0.00745541
0.00730406
0.00717212
0.0070615
0.00697253
0.00690361
0.00685164
0.00681231
0.00678158
0.00675639
0.00673224
0.00670947
0.00669017
0.00667775
0.00667745
0.00668826
0.00670674
0.00674356
0.00680237
0.0068819
0.00697727
0.00708273
0.0071943
0.00730785
0.00741961
0.00752635
0.00762549
0.00771494
0.00779312
0.00785851
0.00790999
0.00794654
0.00796884
0.00797222
0.00796125
0.0310663
0.0117391
0.00821607
0.00702151
0.00642577
0.00607726
0.00583942
0.00566365
0.00552319
0.00540218
0.00529127
0.00518506
0.00508098
0.00497851
0.00487863
0.0047833
0.00469499
0.00461597
0.00454788
0.00449142
0.00444616
0.0044108
0.00438299
0.00436069
0.00434257
0.00432463
0.00430785
0.00429364
0.00428383
0.00428096
0.00428664
0.00429375
0.0043094
0.00434035
0.00438193
0.00443155
0.00448646
0.00454448
0.0046035
0.00466166
0.00471729
0.00476915
0.00481602
0.00485711
0.00489117
0.00491771
0.00493479
0.00494328
0.00493692
0.00492091
0.00855383
0.00371527
0.00299977
0.00278074
0.00266439
0.00257779
0.00251191
0.0024602
0.002417
0.0023783
0.00234141
0.0023048
0.00226771
0.00223
0.00219213
0.00215491
0.0021194
0.00208665
0.00205748
0.00203241
0.00201144
0.00199445
0.00198048
0.00196889
0.00195901
0.00194828
0.0019384
0.00193009
0.00192392
0.00192067
0.00192187
0.00192381
0.00192648
0.00193585
0.00194961
0.00196612
0.00198457
0.00200429
0.00202461
0.00204494
0.00206468
0.00208342
0.00210057
0.00211592
0.00212845
0.00213835
0.00214308
0.00214411
0.00213469
0.00211718
0.000435738
0.000315812
0.000272381
0.000252938
0.000242416
0.000235744
0.000231081
0.000227629
0.000224966
0.000222794
0.000220892
0.000219111
0.000217354
0.000215558
0.000213704
0.000211799
0.000209875
0.000207981
0.000206168
0.000204485
0.000202964
0.00020161
0.000200446
0.000199358
0.000198504
0.000197723
0.000196989
0.000196303
0.000195687
0.00019516
0.000194841
0.00019463
0.000194557
0.000194626
0.0001949
0.000195435
0.000196159
0.000197017
0.000197958
0.000198931
0.000199895
0.00020081
0.000201647
0.000202372
0.000202974
0.000203392
0.000203664
0.000203619
0.000203338
0.000202104
)
;

boundaryField
{
    floor
    {
        type            nutkWallFunction;
        Cmu             0.09;
        kappa           0.41;
        E               9.8;
        value           nonuniform List<scalar> 
50
(
5.14102e-05
3.53671e-05
2.90406e-05
2.57877e-05
2.36507e-05
2.19014e-05
2.03249e-05
1.88161e-05
1.73111e-05
1.57708e-05
1.42026e-05
1.23795e-05
9.86608e-06
5.63395e-06
0
0
1.10021e-06
4.64931e-06
7.17057e-06
8.9281e-06
1.00807e-05
1.07793e-05
1.09502e-05
1.08062e-05
1.01535e-05
8.88625e-06
6.73829e-06
3.17505e-06
0
0
6.25343e-06
1.01262e-05
1.2829e-05
1.48811e-05
1.63918e-05
1.75222e-05
1.83688e-05
1.89948e-05
1.94536e-05
1.97926e-05
2.00656e-05
2.03007e-05
2.04768e-05
2.0601e-05
2.06895e-05
2.07572e-05
2.08146e-05
2.08874e-05
2.09761e-05
2.11582e-05
)
;
    }
    ceiling
    {
        type            nutkWallFunction;
        Cmu             0.09;
        kappa           0.41;
        E               9.8;
        value           nonuniform List<scalar> 
50
(
5.14098e-05
3.55037e-05
2.95615e-05
2.68628e-05
2.53922e-05
2.44563e-05
2.38007e-05
2.33148e-05
2.29398e-05
2.26336e-05
2.23653e-05
2.21138e-05
2.18652e-05
2.16109e-05
2.13479e-05
2.10774e-05
2.08041e-05
2.05348e-05
2.0277e-05
2.00376e-05
1.98211e-05
1.96285e-05
1.94628e-05
1.93076e-05
1.91856e-05
1.90738e-05
1.89682e-05
1.88692e-05
1.87798e-05
1.87035e-05
1.86541e-05
1.86223e-05
1.86128e-05
1.86225e-05
1.86612e-05
1.87372e-05
1.88405e-05
1.8963e-05
1.90973e-05
1.92363e-05
1.93739e-05
1.95042e-05
1.96236e-05
1.97269e-05
1.98126e-05
1.9872e-05
1.99106e-05
1.9904e-05
1.98636e-05
1.96867e-05
)
;
    }
    inlet
    {
        type            calculated;
        value           uniform 0.09;
    }
    outlet
    {
        type            calculated;
        value           nonuniform List<scalar> 
40
(
0.000212447
0.00234929
0.00533883
0.00853528
0.0118183
0.0151429
0.0184798
0.0218027
0.0250834
0.0282906
0.0313897
0.0343425
0.0371079
0.0396434
0.041906
0.0438543
0.0454499
0.0466597
0.0474573
0.0478234
0.0477512
0.0472416
0.0463057
0.0449644
0.0432467
0.0411885
0.0388308
0.0362177
0.0333942
0.0304048
0.0272919
0.0240947
0.0208484
0.0175844
0.0143308
0.0111135
0.00796125
0.00492091
0.00211718
0.000202104
)
;
    }
    fixedWalls
    {
        type            empty;
    }
    baffleFacesThermoBaffle1D_master
    {
        type            nutkWallFunction;
        Cmu             0.09;
        kappa           0.41;
        E               9.8;
        value           nonuniform List<scalar> 
16
(
0
6.36977e-06
1.20618e-05
1.57291e-05
1.83951e-05
2.04446e-05
2.21094e-05
2.3484e-05
2.4611e-05
2.55825e-05
2.63387e-05
2.70058e-05
2.76981e-05
2.84046e-05
2.95015e-05
4.14876e-05
)
;
    }
    baffleFacesThermoBaffle1D_slave
    {
        type            nutkWallFunction;
        Cmu             0.09;
        kappa           0.41;
        E               9.8;
        value           nonuniform List<scalar> 
16
(
4.94779e-06
1.49191e-05
2.08768e-05
2.51673e-05
2.86517e-05
3.14883e-05
3.38465e-05
3.58749e-05
3.7688e-05
3.93598e-05
4.09374e-05
4.248e-05
4.40659e-05
4.58249e-05
4.77521e-05
5.18315e-05
)
;
    }
    baffleFacesThermoBaffle3D_master
    {
        type            nutkWallFunction;
        Cmu             0.09;
        kappa           0.41;
        E               9.8;
        value           nonuniform List<scalar> 
16
(
4.38666e-06
1.06628e-05
1.6648e-05
2.05289e-05
2.32347e-05
2.52606e-05
2.67554e-05
2.80452e-05
2.91187e-05
3.00145e-05
3.07912e-05
3.15188e-05
3.23357e-05
3.39219e-05
3.93565e-05
5.47105e-05
)
;
    }
    baffleFacesThermoBaffle3D_slave
    {
        type            nutkWallFunction;
        Cmu             0.09;
        kappa           0.41;
        E               9.8;
        value           nonuniform List<scalar> 
16
(
1.7724e-06
4.80485e-06
8.00248e-06
1.14624e-05
1.56092e-05
1.97252e-05
2.33521e-05
2.65252e-05
2.93864e-05
3.20215e-05
3.45544e-05
3.72306e-05
3.99485e-05
4.3049e-05
4.74086e-05
5.65105e-05
)
;
    }
}


// ************************************************************************* //
