/*--------------------------------*- C++ -*----------------------------------*\
| =========                 |                                                 |
| \\      /  F ield         | OpenFOAM: The Open Source CFD Toolbox           |
|  \\    /   O peration     | Version:  v1906                                 |
|   \\  /    A nd           | Web:      www.OpenFOAM.com                      |
|    \\/     M anipulation  |                                                 |
\*---------------------------------------------------------------------------*/
FoamFile
{
    version     2.0;
    format      ascii;
    class       surfaceScalarField;
    location    "500";
    object      phi;
}
// * * * * * * * * * * * * * * * * * * * * * * * * * * * * * * * * * * * * * //

dimensions      [1 0 -1 0 0 0 0];
oriented        oriented;


internalField   nonuniform List<scalar> 
3878
(
0.000196837
-4.97855e-05
0.000183181
1.36564e-05
0.000156617
2.65636e-05
0.000133292
2.3326e-05
0.000112411
2.08812e-05
9.09645e-05
2.14464e-05
6.77706e-05
2.31943e-05
4.28778e-05
2.48932e-05
1.70282e-05
2.58501e-05
-8.06752e-06
2.50963e-05
-2.94778e-05
2.14108e-05
-4.28233e-05
1.3346e-05
-4.25506e-05
-2.72215e-07
-2.33487e-05
-1.92015e-05
-2.3348e-05
-1.31447e-05
1.31445e-05
-5.78159e-05
4.4671e-05
-0.000102259
4.44431e-05
-0.000134296
3.20371e-05
-0.000153052
1.87558e-05
-0.000159129
6.07669e-06
-0.000156124
-3.005e-06
-0.000140756
-1.53679e-05
-0.000114159
-2.65968e-05
-7.543e-05
-3.87285e-05
-2.69918e-05
-4.84378e-05
2.49719e-05
-5.1963e-05
5.95973e-05
-3.46246e-05
5.95982e-05
-5.28283e-05
5.28204e-05
-8.63113e-05
3.34806e-05
-0.000102011
1.56981e-05
-0.000104067
2.05432e-06
-9.61693e-05
-7.89814e-06
-8.27401e-05
-1.34299e-05
-6.66661e-05
-1.60745e-05
-4.95108e-05
-1.71556e-05
-3.25249e-05
-1.69862e-05
-1.65088e-05
-1.60165e-05
-1.57277e-06
-1.49363e-05
1.21977e-05
-1.37707e-05
2.47239e-05
-1.25264e-05
3.60744e-05
-1.13508e-05
4.63027e-05
-1.02285e-05
5.56324e-05
-9.32985e-06
6.43984e-05
-8.76614e-06
7.31146e-05
-8.71631e-06
8.26176e-05
-9.50309e-06
9.4605e-05
-1.19874e-05
-1.67889e-05
0.000113014
-1.57487e-05
0.000123729
2.94134e-06
0.00013181
1.84831e-05
0.000128285
2.68512e-05
0.000117162
3.20036e-05
0.000101715
3.68942e-05
8.34447e-05
4.14645e-05
6.3122e-05
4.52161e-05
4.16979e-05
4.72744e-05
2.04634e-05
4.6331e-05
8.96253e-07
4.09781e-05
-1.48587e-05
2.91011e-05
-2.39655e-05
8.83471e-06
-2.4071e-05
-1.90958e-05
-4.74187e-05
-2.92117e-05
4.2356e-05
-6.51463e-05
8.06055e-05
-9.62029e-05
7.54996e-05
-0.000118784
5.46182e-05
-0.00013271
3.26814e-05
-0.000138764
1.21313e-05
-0.000137321
-4.44821e-06
-0.000129043
-2.36462e-05
-0.000113397
-4.22418e-05
-9.05705e-05
-6.15553e-05
-6.02496e-05
-7.87585e-05
-2.3586e-05
-8.86264e-05
1.09781e-05
-6.91883e-05
7.05769e-05
-4.49998e-05
9.78173e-05
-6.583e-05
5.43099e-05
-7.29407e-05
2.28082e-05
-7.07457e-05
-1.41042e-07
-6.27334e-05
-1.59107e-05
-5.09657e-05
-2.51979e-05
-3.71696e-05
-2.98707e-05
-2.27701e-05
-3.15553e-05
-8.4667e-06
-3.12896e-05
5.47518e-06
-2.99584e-05
1.85933e-05
-2.80545e-05
3.0631e-05
-2.58085e-05
4.15701e-05
-2.34656e-05
5.14448e-05
-2.12256e-05
6.03567e-05
-1.91404e-05
6.84538e-05
-1.7427e-05
7.59221e-05
-1.62345e-05
8.30679e-05
-1.58621e-05
9.00984e-05
-1.65336e-05
9.72089e-05
-1.90979e-05
-2.26765e-05
0.000137012
-5.7091e-06
0.000133539
6.41378e-06
0.00013387
1.81525e-05
0.000129524
3.11965e-05
0.000120531
4.09973e-05
0.000107983
4.94419e-05
9.27902e-05
5.66575e-05
7.56733e-05
6.2333e-05
5.73797e-05
6.5568e-05
3.87297e-05
6.49811e-05
2.08774e-05
5.88304e-05
5.11226e-06
4.48663e-05
-7.25673e-06
2.12038e-05
-1.2893e-05
-1.34594e-05
-6.03114e-05
-3.85963e-05
8.0952e-05
-6.64564e-05
0.000108465
-8.82561e-05
9.72992e-05
-0.000104529
7.08907e-05
-0.000115131
4.32832e-05
-0.00012069
1.76911e-05
-0.000120762
-4.37648e-06
-0.00011667
-2.77378e-05
-0.000108222
-5.06907e-05
-9.56932e-05
-7.40837e-05
-7.89443e-05
-9.55073e-05
-5.72482e-05
-0.000110322
-2.92873e-05
-9.71488e-05
4.12904e-05
-3.62954e-05
0.000134111
-4.90426e-05
6.70566e-05
-5.11086e-05
2.4874e-05
-4.68624e-05
-4.38744e-06
-3.86894e-05
-2.40839e-05
-2.80396e-05
-3.58478e-05
-1.60704e-05
-4.184e-05
-3.5421e-06
-4.40836e-05
9.03371e-06
-4.38655e-05
2.1159e-05
-4.20838e-05
3.25492e-05
-3.94447e-05
4.30565e-05
-3.63158e-05
5.26319e-05
-3.3041e-05
6.12739e-05
-2.98676e-05
6.90643e-05
-2.69309e-05
7.60915e-05
-2.44542e-05
8.24725e-05
-2.26155e-05
8.83098e-05
-2.16994e-05
9.36472e-05
-2.1871e-05
9.81298e-05
-2.35806e-05
-2.58006e-05
0.000142768
-1.42589e-06
0.000139747
9.434e-06
0.000136383
2.15173e-05
0.000131424
3.61547e-05
0.000123597
4.88251e-05
0.000112988
6.00505e-05
0.000100068
6.95779e-05
8.53773e-05
7.70233e-05
6.94914e-05
8.1454e-05
5.30065e-05
8.14661e-05
3.6599e-05
7.52379e-05
2.09757e-05
6.04897e-05
7.03779e-06
3.51418e-05
-2.64864e-06
-3.77281e-06
-6.29597e-05
-4.04999e-05
0.000121452
-6.39828e-05
0.000131948
-7.9937e-05
0.000113253
-9.16079e-05
8.25615e-05
-9.94097e-05
5.1085e-05
-0.000104106
2.23876e-05
-0.000105171
-3.31181e-06
-0.00010378
-2.91283e-05
-0.000100049
-5.44225e-05
-9.4323e-05
-7.98093e-05
-8.64267e-05
-0.000103404
-7.5515e-05
-0.000121234
-5.61476e-05
-0.000116516
-1.48565e-05
-2.68678e-05
0.000160978
-3.41029e-05
7.42914e-05
-3.28776e-05
2.36486e-05
-2.7281e-05
-9.98408e-06
-1.90872e-05
-3.22778e-05
-9.24997e-06
-4.5685e-05
1.60447e-06
-5.26944e-05
1.27916e-05
-5.52708e-05
2.3826e-05
-5.48999e-05
3.44172e-05
-5.26751e-05
4.43522e-05
-4.93796e-05
5.353e-05
-4.54936e-05
6.19007e-05
-4.14118e-05
6.94563e-05
-3.74232e-05
7.62466e-05
-3.37212e-05
8.23234e-05
-3.0531e-05
8.77476e-05
-2.80397e-05
9.254e-05
-2.64918e-05
9.66656e-05
-2.59966e-05
9.98401e-05
-2.67551e-05
-2.79407e-05
0.000144644
9.80474e-07
0.000142043
1.20355e-05
0.000138296
2.52646e-05
0.000133377
4.10732e-05
0.000126421
5.57815e-05
0.000117284
6.91876e-05
0.000106171
8.06908e-05
9.34405e-05
8.97536e-05
7.94892e-05
9.54053e-05
6.47017e-05
9.62537e-05
4.94597e-05
9.04799e-05
3.4125e-05
7.58245e-05
1.92253e-05
5.00416e-05
6.57044e-06
8.88226e-06
-5.63888e-05
-3.92852e-05
0.000160736
-5.87328e-05
0.000151395
-7.05312e-05
0.000125052
-7.87521e-05
9.07823e-05
-8.42283e-05
5.65612e-05
-8.75992e-05
2.57585e-05
-8.91403e-05
-1.77072e-06
-8.93929e-05
-2.88756e-05
-8.86537e-05
-5.51616e-05
-8.7144e-05
-8.1319e-05
-8.42938e-05
-0.000106254
-7.87689e-05
-0.000126759
-6.38346e-05
-0.00013145
-7.86905e-05
-1.76059e-05
0.000178583
-2.03509e-05
7.70363e-05
-1.67198e-05
2.00176e-05
-1.00662e-05
-1.66378e-05
-1.68136e-06
-4.06626e-05
7.72212e-06
-5.50885e-05
1.75813e-05
-6.25536e-05
2.7499e-05
-6.51885e-05
3.71828e-05
-6.45837e-05
4.64243e-05
-6.19166e-05
5.50721e-05
-5.80275e-05
6.30544e-05
-5.34758e-05
7.03309e-05
-4.86884e-05
7.68933e-05
-4.39856e-05
8.27697e-05
-3.95976e-05
8.79871e-05
-3.57484e-05
9.25726e-05
-3.26253e-05
9.65157e-05
-3.04349e-05
9.97724e-05
-2.92532e-05
0.000102185
-2.91676e-05
-2.95835e-05
0.000145448
2.58258e-06
0.000143123
1.43612e-05
0.000139589
2.87986e-05
0.000135022
4.56399e-05
0.000128871
6.19328e-05
0.000120969
7.70894e-05
0.000111372
9.02875e-05
0.000100285
0.000100841
8.7935e-05
0.000107755
7.45126e-05
0.000109676
6.01565e-05
0.000104836
4.49566e-05
9.10245e-05
2.91111e-05
6.58872e-05
1.35011e-05
2.44924e-05
-4.28873e-05
-3.54075e-05
0.000196143
-5.207e-05
0.000168058
-6.03723e-05
0.000133354
-6.53636e-05
9.57735e-05
-6.87205e-05
5.9918e-05
-7.07877e-05
2.78255e-05
-7.21647e-05
-3.937e-07
-7.32471e-05
-2.77933e-05
-7.42009e-05
-5.42078e-05
-7.50109e-05
-8.05089e-05
-7.48673e-05
-0.000106397
-7.13078e-05
-0.000130318
-5.68118e-05
-0.000145946
-0.000135502
-9.14273e-06
0.000187726
-7.78297e-06
7.56765e-05
-2.0362e-06
1.42708e-05
5.65418e-06
-2.43282e-05
1.42515e-05
-4.92599e-05
2.32094e-05
-6.40465e-05
3.22088e-05
-7.15529e-05
4.10323e-05
-7.4012e-05
4.95212e-05
-7.30726e-05
5.75543e-05
-6.99497e-05
6.50401e-05
-6.55133e-05
7.19344e-05
-6.03701e-05
7.82096e-05
-5.49636e-05
8.38596e-05
-4.96356e-05
8.89e-05
-4.4638e-05
9.3342e-05
-4.01904e-05
9.7195e-05
-3.64783e-05
0.000100441
-3.3681e-05
0.00010305
-3.18625e-05
0.000104958
-3.10757e-05
-3.09175e-05
0.000145837
3.79563e-06
0.000143701
1.64979e-05
0.000140476
3.20233e-05
0.000136349
4.97672e-05
0.000130954
6.73275e-05
0.000124129
8.39144e-05
0.000115836
9.85801e-05
0.000106154
0.000110524
9.51568e-05
0.000118752
8.28527e-05
0.00012198
6.9167e-05
0.000118522
5.39488e-05
0.000106243
3.7101e-05
8.27351e-05
1.87909e-05
4.28027e-05
-2.40959e-05
-3.0456e-05
0.000226598
-4.35131e-05
0.000181114
-4.87798e-05
0.00013862
-5.10885e-05
9.8082e-05
-5.23537e-05
6.1183e-05
-5.32386e-05
2.87104e-05
-5.40967e-05
4.64313e-07
-5.54251e-05
-2.64649e-05
-5.72402e-05
-5.23927e-05
-5.93202e-05
-7.84288e-05
-6.06264e-05
-0.000105091
-5.82763e-05
-0.000132668
-4.52163e-05
-0.000159005
-0.000180718
-9.23839e-07
0.00018865
3.78022e-06
7.09725e-05
1.15375e-05
6.51348e-06
2.0171e-05
-3.29616e-05
2.895e-05
-5.8039e-05
3.75212e-05
-7.26177e-05
4.57595e-05
-7.97912e-05
5.36054e-05
-8.18579e-05
6.10177e-05
-8.04849e-05
6.79567e-05
-7.68887e-05
7.43847e-05
-7.19414e-05
8.02854e-05
-6.62707e-05
8.56438e-05
-6.0322e-05
9.04579e-05
-5.44497e-05
9.4737e-05
-4.89172e-05
9.84832e-05
-4.39366e-05
0.000101698
-3.96927e-05
0.000104365
-3.63487e-05
0.000106474
-3.39709e-05
0.000108016
-3.26177e-05
-3.20285e-05
0.00014605
4.79581e-06
0.000144065
1.84829e-05
0.000141139
3.49491e-05
0.000137447
5.3459e-05
0.000132744
7.20305e-05
0.000126865
8.97935e-05
0.000119709
0.000105737
0.000111248
0.000118984
0.000101419
0.000128581
9.00605e-05
0.000133339
7.6904e-05
0.000131678
6.15743e-05
0.000121572
4.37289e-05
0.000100581
2.31192e-05
6.34127e-05
-9.76202e-07
-2.47458e-05
0.000251343
-3.38188e-05
0.000190187
-3.59912e-05
0.000140792
-3.57325e-05
9.78232e-05
-3.50258e-05
6.04762e-05
-3.468e-05
2.83645e-05
-3.49023e-05
6.86581e-07
-3.61461e-05
-2.52212e-05
-3.83602e-05
-5.01786e-05
-4.12547e-05
-7.55342e-05
-4.38555e-05
-0.00010249
-4.38739e-05
-0.000132649
-3.46718e-05
-0.000168207
-0.000215389
5.32315e-06
0.000183327
1.42689e-05
6.20269e-05
2.40604e-05
-3.27808e-06
3.36715e-05
-4.25726e-05
4.26419e-05
-6.70093e-05
5.08548e-05
-8.08306e-05
5.83896e-05
-8.7326e-05
6.53374e-05
-8.88058e-05
7.17646e-05
-8.69121e-05
7.77038e-05
-8.2828e-05
8.31648e-05
-7.74024e-05
8.81573e-05
-7.12632e-05
9.2678e-05
-6.48427e-05
9.67297e-05
-5.85014e-05
0.00010032
-5.2507e-05
0.000103444
-4.70614e-05
0.000106102
-4.23508e-05
0.000108285
-3.8531e-05
0.000109993
-3.56789e-05
0.00011125
-3.38748e-05
-3.29608e-05
0.000146185
5.66104e-06
0.000144342
2.03253e-05
0.000141695
3.75967e-05
0.000138411
5.6743e-05
0.000134332
7.61092e-05
0.000129285
9.48409e-05
0.000123128
0.000111893
0.000115752
0.00012636
0.000106962
0.000137372
9.64448e-05
0.000143856
8.37531e-05
0.00014437
6.82907e-05
0.000137035
4.94789e-05
0.000119393
2.67648e-05
8.6127e-05
2.57892e-05
-1.81519e-05
0.000269493
-2.28749e-05
0.000194909
-2.1956e-05
0.000139873
-1.91698e-05
9.50368e-05
-1.66098e-05
5.79161e-05
-1.50718e-05
2.68264e-05
-1.4642e-05
2.56688e-07
-1.56526e-05
-2.42106e-05
-1.8024e-05
-4.78072e-05
-2.15134e-05
-7.20448e-05
-2.52956e-05
-9.87079e-05
-2.74169e-05
-0.000130528
-2.28624e-05
-0.000172762
-0.000238251
1.15494e-05
0.000171778
2.41607e-05
4.94157e-05
3.5853e-05
-1.49703e-05
4.641e-05
-5.31296e-05
5.5527e-05
-7.61263e-05
6.33626e-05
-8.86662e-05
7.02122e-05
-9.41755e-05
7.63112e-05
-9.49048e-05
8.18222e-05
-9.2423e-05
8.68403e-05
-8.78461e-05
9.14139e-05
-8.19761e-05
9.55764e-05
-7.54257e-05
9.93335e-05
-6.85999e-05
0.000102693
-6.18604e-05
0.000105661
-5.54759e-05
0.000108233
-4.96334e-05
0.000110406
-4.45238e-05
0.000112177
-4.03016e-05
0.000113556
-3.70581e-05
0.00011458
-3.48989e-05
-3.37407e-05
0.000146285
6.42613e-06
0.000144589
2.20204e-05
0.000142207
3.99795e-05
0.000139323
5.96262e-05
0.000135792
7.9641e-05
0.000131477
9.91553e-05
0.000126232
0.000117139
0.000119841
0.000132751
0.000112007
0.000145206
0.000102292
0.000153571
9.00819e-05
0.000156581
7.45415e-05
0.000152576
5.48069e-05
0.000139127
3.00393e-05
0.000110895
5.5829e-05
-1.19913e-05
0.000281484
-1.15149e-05
0.000194433
-6.68618e-06
0.000135044
-1.30199e-06
8.96524e-05
2.95677e-06
5.36573e-05
5.53157e-06
2.42515e-05
6.45862e-06
-6.70414e-07
5.58105e-06
-2.3333e-05
3.01904e-06
-4.52452e-05
-8.89679e-07
-6.81361e-05
-5.70097e-06
-9.38966e-05
-1.04376e-05
-0.000125791
-1.10869e-05
-0.000172112
-0.000249338
1.72432e-05
0.000154535
3.35049e-05
3.31542e-05
4.71847e-05
-2.865e-05
5.86354e-05
-6.45802e-05
6.77803e-05
-8.52711e-05
7.51721e-05
-9.6058e-05
8.13192e-05
-0.000100323
8.6593e-05
-0.000100179
9.12383e-05
-9.70683e-05
9.54008e-05
-9.20086e-05
9.91571e-05
-8.57324e-05
0.000102561
-7.88295e-05
0.000105624
-7.16627e-05
0.000108356
-6.45923e-05
0.000110767
-5.78876e-05
0.000112849
-5.17148e-05
0.000114598
-4.62734e-05
0.000116017
-4.17199e-05
0.00011712
-3.81616e-05
0.000117947
-3.57261e-05
-3.43859e-05
0.00014637
7.10556e-06
0.000144834
2.35562e-05
0.000142734
4.20795e-05
0.000140217
6.2143e-05
0.000137184
8.26742e-05
0.000133554
0.000102786
0.00012913
0.000121563
0.000123645
0.000138236
0.000116737
0.000152113
0.00010787
0.000162438
9.625e-05
0.000168201
8.08002e-05
0.000168025
6.0298e-05
0.000159629
3.34551e-05
0.000137738
8.92847e-05
-3.73199e-06
0.000285214
1.61931e-06
0.000189081
1.02696e-05
0.000126394
1.7886e-05
8.20359e-05
2.34963e-05
4.80469e-05
2.69914e-05
2.07564e-05
2.83807e-05
-2.05975e-06
2.77188e-05
-2.26711e-05
2.50509e-05
-4.25773e-05
2.04025e-05
-6.34877e-05
1.40716e-05
-8.75656e-05
6.45935e-06
-0.000118179
-1.30586e-06
-0.000164347
-0.000250644
2.25784e-05
0.000131957
4.2655e-05
1.30777e-05
5.84795e-05
-4.44745e-05
7.05852e-05
-7.66859e-05
7.95694e-05
-9.42553e-05
8.63962e-05
-0.000102885
9.17898e-05
-0.000105716
9.62404e-05
-0.000104629
0.000100055
-0.000100883
0.000103418
-9.53708e-05
0.000106418
-8.87328e-05
0.000109128
-8.15396e-05
0.000111561
-7.40958e-05
0.000113726
-6.67576e-05
0.00011564
-5.98008e-05
0.000117287
-5.33617e-05
0.000118666
-4.76533e-05
0.000119781
-4.28348e-05
0.00012065
-3.90301e-05
0.000121307
-3.63831e-05
-3.491e-05
0.000146453
7.7017e-06
0.000145102
2.4907e-05
0.000143279
4.39032e-05
0.000141105
6.43167e-05
0.000138568
8.52109e-05
0.000135572
0.000105782
0.000131916
0.000125219
0.000127304
0.000142848
0.000121339
0.000158078
0.00011341
0.000170367
0.0001026
0.000179011
8.75526e-05
0.000183073
6.65614e-05
0.000180621
3.75216e-05
0.000166778
0.000126807
4.04333e-06
0.00028117
1.66894e-05
0.000176435
2.89734e-05
0.000114109
3.85429e-05
7.24663e-05
4.53118e-05
4.12779e-05
4.92521e-05
1.6816e-05
5.08539e-05
-3.6615e-06
5.03007e-05
-2.21179e-05
4.7583e-05
-3.98597e-05
4.2582e-05
-5.84867e-05
3.49681e-05
-7.99516e-05
2.46345e-05
-0.000107845
1.16007e-05
-0.000151313
-0.000239043
2.81011e-05
0.000103857
5.24831e-05
-1.13042e-05
7.01755e-05
-6.21669e-05
8.25431e-05
-8.90534e-05
9.10544e-05
-0.000102767
9.71318e-05
-0.000108962
0.000101691
-0.000110275
0.000105305
-0.000108243
0.000108312
-0.000103891
0.000110922
-9.79804e-05
0.000113227
-9.10381e-05
0.000115294
-8.36062e-05
0.000117158
-7.59602e-05
0.000118819
-6.84184e-05
0.00012028
-6.12621e-05
0.000121544
-5.46249e-05
0.000122601
-4.87104e-05
0.000123452
-4.36864e-05
0.000124118
-3.96963e-05
0.000124626
-3.68908e-05
-3.53241e-05
0.000146544
8.20631e-06
0.000145391
2.60606e-05
0.000143831
4.54635e-05
0.000142023
6.61247e-05
0.000139969
8.72648e-05
0.000137578
0.000108172
0.000134659
0.000128138
0.000130921
0.000146586
0.000125944
0.000163054
0.000119117
0.000177194
0.000109453
0.000188675
9.5343e-05
0.000197184
7.45585e-05
0.000201405
4.34044e-05
0.000197932
0.000170212
1.46866e-05
0.000266483
3.43086e-05
0.000156812
4.99799e-05
9.84381e-05
6.10422e-05
6.1404e-05
6.80834e-05
3.42366e-05
7.20065e-05
1.28929e-05
7.35607e-05
-5.21573e-06
7.29731e-05
-2.15303e-05
7.02666e-05
-3.71531e-05
6.51561e-05
-5.33762e-05
5.69529e-05
-7.17483e-05
4.44891e-05
-9.53816e-05
2.52755e-05
-0.000132099
-0.000213767
3.45128e-05
6.93445e-05
6.37767e-05
-4.0568e-05
8.28024e-05
-8.11925e-05
9.47502e-05
-0.000101001
0.000102349
-0.000110366
0.000107446
-0.000114059
0.000111073
-0.000113902
0.000113828
-0.000110998
0.000116052
-0.000106116
0.000117938
-9.98659e-05
0.000119605
-9.27048e-05
0.000121088
-8.50895e-05
0.000122431
-7.7303e-05
0.00012364
-6.9628e-05
0.000124701
-6.2323e-05
0.000125622
-5.55456e-05
0.000126396
-4.94844e-05
0.000127021
-4.43113e-05
0.000127508
-4.01832e-05
0.000127883
-3.72665e-05
-3.56383e-05
0.000146637
8.61851e-06
0.000145683
2.70139e-05
0.000144409
4.67376e-05
0.000142978
6.75554e-05
0.000141401
8.88423e-05
0.000139601
0.000109973
0.000137407
0.000130332
0.000134556
0.000149437
0.00013066
0.00016695
0.000125121
0.000182733
0.000117019
0.000196777
0.000104618
0.000209585
8.49994e-05
0.000221024
5.17694e-05
0.000231163
0.000221981
2.78314e-05
0.000238652
5.61021e-05
0.000128542
7.40676e-05
8.04727e-05
8.51258e-05
5.03458e-05
9.15584e-05
2.7804e-05
9.49269e-05
9.52431e-06
9.6072e-05
-6.36075e-06
9.53243e-05
-2.07827e-05
9.26872e-05
-3.4516e-05
8.78042e-05
-4.84932e-05
7.95567e-05
-6.35007e-05
6.565e-05
-8.14749e-05
4.10411e-05
-0.000107491
-0.000172726
4.34077e-05
2.59375e-05
7.79453e-05
-7.51054e-05
9.69059e-05
-0.000100153
0.000107337
-0.000111432
0.000113491
-0.00011652
0.000117365
-0.000117932
0.000119966
-0.000116504
0.000121845
-0.000112876
0.000123305
-0.000107576
0.000124514
-0.000101075
0.000125578
-9.37687e-05
0.000126532
-8.60438e-05
0.000127405
-7.81755e-05
0.000128202
-7.04246e-05
0.000128909
-6.30303e-05
0.000129527
-5.61637e-05
0.00013005
-5.00077e-05
0.000130478
-4.47386e-05
0.000130809
-4.05144e-05
0.000131067
-3.75248e-05
-3.58594e-05
0.000146724
8.94298e-06
0.000145982
2.77557e-05
0.000145017
4.77027e-05
0.000143972
6.86009e-05
0.000142869
8.99451e-05
0.000141652
0.00011119
0.000140181
0.000131803
0.00013824
0.000151378
0.000135509
0.000169681
0.000131504
0.000186738
0.000125443
0.000202838
0.000115917
0.000219111
0.000100183
0.000236758
6.74736e-05
0.000263872
0.000289455
4.62214e-05
0.000192431
8.40464e-05
9.0717e-05
0.000101451
6.30679e-05
0.000110597
4.11998e-05
0.000115288
2.31135e-05
0.000117462
7.3506e-06
0.000117916
-6.81569e-06
0.000116898
-1.97646e-05
0.000114434
-3.20514e-05
0.000110153
-4.42123e-05
0.000102962
-5.63094e-05
9.01975e-05
-6.87107e-05
6.23578e-05
-7.96509e-05
-0.000110368
6.15467e-05
-3.56086e-05
9.75033e-05
-0.000111062
0.000112662
-0.000115312
0.000120227
-0.000118997
0.000124415
-0.000120708
0.000126868
-0.000120385
0.000128383
-0.00011802
0.000129384
-0.000113877
0.000130104
-0.000108296
0.000130678
-0.000101649
0.000131186
-9.42761e-05
0.000131655
-8.65126e-05
0.000132101
-7.86221e-05
0.000132526
-7.08499e-05
0.000132917
-6.34209e-05
0.000133267
-5.65139e-05
0.000133569
-5.031e-05
0.000133819
-4.49884e-05
0.000134015
-4.07101e-05
0.000134171
-3.76805e-05
-3.5995e-05
0.000146813
9.17797e-06
0.000146292
2.82768e-05
0.000145646
4.83492e-05
0.000144994
6.92526e-05
0.000144367
9.05721e-05
0.000143728
0.000111829
0.000142979
0.000132552
0.000141963
0.000152394
0.000140459
0.000171185
0.000138152
0.000189045
0.00013455
0.000206441
0.00012873
0.000224931
0.000118414
0.000247074
8.93574e-05
0.000292929
0.000378813
9.51551e-05
9.72765e-05
0.000121511
6.43617e-05
0.000132006
5.25725e-05
0.000136504
3.6702e-05
0.000138454
2.11637e-05
0.000139003
6.80123e-06
0.000138559
-6.37113e-06
0.00013722
-1.84263e-05
0.000134978
-2.98084e-05
0.00013149
-4.07246e-05
0.000125973
-5.07922e-05
0.000116101
-5.88394e-05
9.17869e-05
-5.53364e-05
-1.85816e-05
0.000103431
-0.00013904
0.000121473
-0.000129103
0.000129233
-0.000123072
0.000132995
-0.000122759
0.000134937
-0.000122651
0.000135895
-0.000121342
0.00013632
-0.000118445
0.000136465
-0.000114022
0.000136484
-0.000108315
0.000136465
-0.000101631
0.00013646
-9.42709e-05
0.000136485
-8.65372e-05
0.000136545
-7.86824e-05
0.000136636
-7.09407e-05
0.000136742
-6.35272e-05
0.000136854
-5.66255e-05
0.00013696
-5.04163e-05
0.000137053
-4.50814e-05
0.000137128
-4.07851e-05
0.000137191
-3.77431e-05
-3.60536e-05
0.000146905
9.32158e-06
0.000146609
2.85718e-05
0.000146287
4.86713e-05
0.000146034
6.9506e-05
0.000145882
9.07239e-05
0.000145817
0.000111894
0.000145781
0.000132588
0.000145688
0.000152487
0.000145434
0.000171439
0.000144927
0.000189553
0.000144129
0.000207238
0.000143376
0.000225685
0.000143877
0.000246572
0.000159671
0.000277135
0.000230823
0.000307661
0.000185834
0.000142266
0.000167958
8.22374e-05
0.000163149
5.73817e-05
0.000161289
3.85623e-05
0.000160083
2.23698e-05
0.000158911
7.97295e-06
0.000157534
-4.99378e-06
0.000155881
-1.67733e-05
0.000153828
-2.77554e-05
0.000151223
-3.81198e-05
0.000147968
-4.75368e-05
0.000144057
-5.49283e-05
0.000144745
-5.60242e-05
0.000173602
-4.74391e-05
0.000152112
-0.00011755
0.000145654
-0.000122644
0.00014504
-0.000122458
0.000145027
-0.000122746
0.000144823
-0.000122446
0.00014437
-0.00012089
0.000143766
-0.000117841
0.000143111
-0.000113367
0.000142478
-0.000107682
0.000141912
-0.000101064
0.000141436
-9.37952e-05
0.000141055
-8.61562e-05
0.000140764
-7.83919e-05
0.000140553
-7.07293e-05
0.000140403
-6.33777e-05
0.000140301
-5.65234e-05
0.000140233
-5.03478e-05
0.000140186
-4.5035e-05
0.000140153
-4.07521e-05
0.000140131
-3.77205e-05
-3.60419e-05
0.000146997
9.37281e-06
0.00014693
2.86384e-05
0.000146934
4.86675e-05
0.000147079
6.93609e-05
0.000147398
9.0405e-05
0.000147895
0.000111397
0.000148552
0.000131931
0.00014935
0.00015169
0.00015029
0.0001705
0.00015146
0.000188382
0.000153137
0.000205562
0.000156275
0.000222547
0.000163096
0.000239752
0.000184557
0.000255674
0.00023199
0.000260227
0.000216532
0.000157725
0.000197512
0.000101257
0.000187796
6.70984e-05
0.000182437
4.39208e-05
0.000179085
2.57218e-05
0.000176614
1.04448e-05
0.000174508
-2.8883e-06
0.000172537
-1.48022e-05
0.00017055
-2.57682e-05
0.000168453
-3.60229e-05
0.000166373
-4.54572e-05
0.000164836
-5.3391e-05
0.000167928
-5.91159e-05
0.000181867
-6.13783e-05
0.000169963
-0.000105646
0.000161799
-0.000114481
0.000158026
-0.000118685
0.000155695
-0.000120415
0.000153868
-0.000120619
0.000152233
-0.000119255
0.000150726
-0.000116334
0.00014935
-0.000111991
0.000148123
-0.000106454
0.000147055
-9.99959e-05
0.000146149
-9.28898e-05
0.000145398
-8.54049e-05
0.000144788
-7.7782e-05
0.000144303
-7.0244e-05
0.000143922
-6.29966e-05
0.000143627
-5.62286e-05
0.000143402
-5.01222e-05
0.00014323
-4.48633e-05
0.000143099
-4.06215e-05
0.000142999
-3.76202e-05
-3.59647e-05
0.000147089
9.33192e-06
0.000147249
2.84777e-05
0.000147576
4.83405e-05
0.000148115
6.8822e-05
0.000148895
8.96249e-05
0.000149937
0.000110355
0.000151257
0.00013061
0.000152891
0.000150055
0.000154925
0.000168466
0.000157567
0.00018574
0.000161268
0.000201861
0.000167135
0.00021668
0.000177259
0.000229628
0.000197235
0.000235699
0.00022899
0.000228472
0.000225899
0.000160817
0.00021452
0.000112636
0.000205561
7.6058e-05
0.000199368
5.01134e-05
0.000195075
3.00158e-05
0.000191881
1.36387e-05
0.000189309
-3.16747e-07
0.000187097
-1.259e-05
0.000185085
-2.37563e-05
0.000183198
-3.41361e-05
0.000181582
-4.38405e-05
0.000180721
-5.25308e-05
0.000182541
-6.09351e-05
0.000188813
-6.7651e-05
0.000180835
-9.76676e-05
0.000173731
-0.000107377
0.000168777
-0.00011373
0.000165076
-0.000116713
0.00016208
-0.000117623
0.000159499
-0.000116674
0.000157226
-0.000114061
0.000155217
-0.000109982
0.000153457
-0.000104695
0.000151935
-9.84737e-05
0.000150638
-9.15928e-05
0.000149548
-8.43155e-05
0.000148647
-7.68805e-05
0.000147912
-6.95087e-05
0.00014732
-6.24046e-05
0.00014685
-5.57585e-05
0.000146481
-4.97539e-05
0.000146196
-4.45779e-05
0.000145976
-4.04018e-05
0.000145804
-3.74485e-05
-3.58265e-05
0.000147179
9.20062e-06
0.000147562
2.80942e-05
0.000148205
4.76977e-05
0.000149128
6.78994e-05
0.000150354
8.83983e-05
0.000151917
0.000108793
0.000153861
0.000128667
0.000156263
0.000147653
0.000159263
0.000165466
0.000163134
0.000181869
0.000168374
0.000196621
0.000175964
0.00020909
0.000187444
0.000218148
0.000204822
0.000218321
0.000226942
0.000206352
0.000229564
0.000158195
0.000224364
0.000117836
0.000217928
8.24936e-05
0.000212443
5.55991e-05
0.000208144
3.43146e-05
0.000204755
1.70276e-05
0.000201988
2.45006e-06
0.000199637
-1.02385e-05
0.000197559
-2.1679e-05
0.000195685
-3.22611e-05
0.000194096
-4.2252e-05
0.000193098
-5.15331e-05
0.000193376
-6.12128e-05
0.000195485
-6.976e-05
0.000189316
-9.14986e-05
0.000183128
-0.000101189
0.000177792
-0.000108394
0.000173327
-0.000112248
0.000169527
-0.000113823
0.000166218
-0.000113366
0.000163311
-0.000111153
0.000160756
-0.000107427
0.000158524
-0.000102463
0.000156592
-9.65421e-05
0.000154939
-8.99397e-05
0.00015354
-8.29166e-05
0.000152371
-7.57112e-05
0.000151406
-6.85437e-05
0.00015062
-6.16183e-05
0.000149988
-5.51272e-05
0.000149489
-4.92543e-05
0.000149099
-4.41879e-05
0.000148796
-4.00997e-05
0.000148558
-3.72105e-05
-3.56309e-05
0.000147266
8.98208e-06
0.000147864
2.74957e-05
0.000148811
4.67508e-05
0.000150103
6.66078e-05
0.000151756
8.67447e-05
0.000153812
0.000106737
0.000156335
0.000126143
0.00015943
0.000144558
0.000163265
0.00016163
0.000168126
0.000177009
0.000174472
0.000190275
0.000183044
0.000200518
0.000194785
0.000206407
0.000209796
0.00020331
0.000226366
0.000189783
0.000231578
0.000152983
0.000230449
0.000118965
0.00022661
8.63322e-05
0.000222433
5.97763e-05
0.000218682
3.80653e-05
0.000215479
2.02307e-05
0.000212743
5.18688e-06
0.000210357
-7.85317e-06
0.000208219
-1.95411e-05
0.000206263
-3.03045e-05
0.000204507
-4.04966e-05
0.000203097
-5.01229e-05
0.00020215
-6.02651e-05
0.000201891
-6.95008e-05
0.000196578
-8.61859e-05
0.000190971
-9.55816e-05
0.00018555
-0.000102973
0.000180664
-0.000107363
0.00017632
-0.000109478
0.00017246
-0.000109506
0.000169037
-0.00010773
0.000166016
-0.000104406
0.000163368
-9.98156e-05
0.000161069
-9.42424e-05
0.000159091
-8.79617e-05
0.000157407
-8.12329e-05
0.00015599
-7.42941e-05
0.000154812
-6.73655e-05
0.000153845
-6.06514e-05
0.000153063
-5.43454e-05
0.000152441
-4.86321e-05
0.000151953
-4.36999e-05
0.000151574
-3.97202e-05
0.000151273
-3.69099e-05
-3.53806e-05
0.000147348
8.681e-06
0.00014815
2.66936e-05
0.000149385
4.55157e-05
0.000151027
6.49662e-05
0.000153085
8.4687e-05
0.000155603
0.000104218
0.000158661
0.000123086
0.000162375
0.000140844
0.000166921
0.000157085
0.00017256
0.000171369
0.00017967
0.000183166
0.00018873
0.000191457
0.00020018
0.000194957
0.00021338
0.00019011
0.000226847
0.000176315
0.000233095
0.000146736
0.000234556
0.000117504
0.000232899
8.79891e-05
0.000230132
6.25441e-05
0.000227183
4.1014e-05
0.000224396
2.30176e-05
0.000221851
7.73186e-06
0.000219525
-5.52705e-06
0.00021736
-1.73755e-05
0.000215301
-2.82461e-05
0.000213329
-3.85247e-05
0.000211486
-4.82794e-05
0.000209646
-5.84251e-05
0.000207979
-6.78341e-05
0.000203115
-8.13224e-05
0.000197808
-9.02745e-05
0.000192409
-9.75738e-05
0.000187293
-0.000102247
0.000182582
-0.000104767
0.000178307
-0.000105231
0.000174467
-0.00010389
0.00017105
-0.000100989
0.000168037
-9.68028e-05
0.000165406
-9.16113e-05
0.000163131
-8.56865e-05
0.000161184
-7.92855e-05
0.000159535
-7.26456e-05
0.000158156
-6.59867e-05
0.000157019
-5.95137e-05
0.000156094
-5.34209e-05
0.000155356
-4.78935e-05
0.000154774
-4.31186e-05
0.000154321
-3.92668e-05
0.00015396
-3.65494e-05
-3.50779e-05
0.000147424
8.30354e-06
0.000148416
2.57021e-05
0.000149919
4.40122e-05
0.000151888
6.29971e-05
0.000154325
8.22506e-05
0.000157276
0.000101267
0.000160825
0.000119537
0.000165092
0.000136577
0.000170242
0.000151934
0.000176496
0.000165116
0.000184131
0.000175531
0.000193413
0.000182175
0.000204434
0.000183936
0.000216378
0.000178166
0.000227951
0.000164742
0.000234548
0.000140139
0.00023765
0.000114401
0.000237672
8.79671e-05
0.000236208
6.40088e-05
0.00023413
4.30916e-05
0.000231874
2.52739e-05
0.000229623
9.98303e-06
0.000227429
-3.33322e-06
0.000225279
-1.52254e-05
0.000223138
-2.61056e-05
0.000220969
-3.63559e-05
0.000218767
-4.60773e-05
0.000216327
-5.59849e-05
0.000213752
-6.5259e-05
0.000209131
-7.67011e-05
0.000204007
-8.51502e-05
0.000198641
-9.22079e-05
0.000193395
-9.7001e-05
0.000188433
-9.98058e-05
0.000183844
-0.000100642
0.000179666
-9.97126e-05
0.000175912
-9.72344e-05
0.000172577
-9.34676e-05
0.000169645
-8.86801e-05
0.000167096
-8.31371e-05
0.000164902
-7.70913e-05
0.000163034
-7.07781e-05
0.000161465
-6.44168e-05
0.000160163
-5.82121e-05
0.000159101
-5.23588e-05
0.000158249
-4.70416e-05
0.000157577
-4.24464e-05
0.000157051
-3.87411e-05
0.000156632
-3.61303e-05
-3.47241e-05
0.000147493
7.85732e-06
0.000148656
2.45385e-05
0.000150405
4.22634e-05
0.000152676
6.07261e-05
0.000155465
7.94617e-05
0.000158819
9.79131e-05
0.000162822
0.000115535
0.000167587
0.000131812
0.000173258
0.000146264
0.000180002
0.000158371
0.000188
0.000167533
0.000197344
0.000172831
0.000207953
0.000173326
0.000219001
0.000167119
0.000229372
0.000154371
0.000236185
0.000133327
0.00024023
0.000110356
0.000241536
8.66615e-05
0.000241197
6.43482e-05
0.000239953
4.43357e-05
0.00023826
2.69663e-05
0.000236357
1.18866e-05
0.000234347
-1.32314e-06
0.000232255
-1.31334e-05
0.000230068
-2.39191e-05
0.000227748
-3.40352e-05
0.00022527
-4.35995e-05
0.000222444
-5.31588e-05
0.000219321
-6.21367e-05
0.000214794
-7.21737e-05
0.000209775
-8.01316e-05
0.000204444
-8.68766e-05
0.000199121
-9.16782e-05
0.000193984
-9.4668e-05
0.000189153
-9.58107e-05
0.000184698
-9.52575e-05
0.000180654
-9.31904e-05
0.000177032
-8.98457e-05
0.000173826
-8.54747e-05
0.000171021
-8.03321e-05
0.000168594
-7.46635e-05
0.000166516
-6.87008e-05
0.000164761
-6.26616e-05
0.000163299
-5.67501e-05
0.000162101
-5.11608e-05
0.000161137
-4.60774e-05
0.000160374
-4.16834e-05
0.000159776
-3.81433e-05
0.000159299
-3.5653e-05
-3.43198e-05
0.000147552
7.35149e-06
0.000148868
2.32231e-05
0.000150835
4.02958e-05
0.000153381
5.81802e-05
0.000156496
7.63465e-05
0.000160228
9.41819e-05
0.000164654
0.000111109
0.000169875
0.000126591
0.000176004
0.000140134
0.000183157
0.000151218
0.000191427
0.000159262
0.000200796
0.000163463
0.000211073
0.000163049
0.000221466
0.000156726
0.000231082
0.000144754
0.000238032
0.000126377
0.000242568