/*--------------------------------*- C++ -*----------------------------------*\
| =========                 |                                                 |
| \\      /  F ield         | OpenFOAM: The Open Source CFD Toolbox           |
|  \\    /   O peration     | Version:  v1906                                 |
|   \\  /    A nd           | Web:      www.OpenFOAM.com                      |
|    \\/     M anipulation  |                                                 |
\*---------------------------------------------------------------------------*/
FoamFile
{
    version     2.0;
    format      ascii;
    class       volScalarField;
    location    "500";
    object      T;
}
// * * * * * * * * * * * * * * * * * * * * * * * * * * * * * * * * * * * * * //

dimensions      [0 0 0 1 0 0 0];


internalField   nonuniform List<scalar> 
2000
(
300
300.001
300.005
300.012
300.022
300.036
300.058
300.093
300.152
300.257
300.44
300.746
301.259
302.251
305.054
305.088
302.653
302.531
302.573
302.678
302.817
303.006
303.248
303.565
303.981
304.54
305.317
305.886
310.84
306.677
301.598
301.538
301.282
301.117
300.978
300.862
300.765
300.683
300.612
300.551
300.498
300.453
300.414
300.38
300.351
300.326
300.305
300.289
300.277
300.269
300
300.003
300.008
300.016
300.027
300.043
300.067
300.103
300.16
300.253
300.402
300.638
301.007
301.644
303.129
304.388
302.655
302.491
302.483
302.534
302.63
302.778
302.988
303.286
303.71
304.337
305.315
306.961
311.431
306.24
302.216
301.717
301.416
301.202
301.035
300.9
300.789
300.697
300.619
300.553
300.498
300.45
300.409
300.375
300.345
300.321
300.301
300.285
300.274
300.268
300
300.004
300.009
300.018
300.03
300.047
300.072
300.107
300.162
300.245
300.372
300.561
300.843
301.286
302.197
303.846
302.646
302.446
302.408
302.428
302.497
302.618
302.8
303.067
303.461
304.071
305.1
307.147
312.488
305.9
302.559
301.865
301.501
301.253
301.066
300.919
300.799
300.701
300.62
300.552
300.495
300.446
300.405
300.37
300.341
300.317
300.297
300.282
300.272
300.266
300.001
300.004
300.01
300.02
300.032
300.05
300.074
300.109
300.16
300.235
300.343
300.499
300.721
301.055
301.764
303.539
302.61
302.402
302.338
302.335
302.38
302.475
302.628
302.857
303.2
303.735
304.66
306.644
312.263
305.556
302.725
301.965
301.559
301.287
301.085
300.928
300.803
300.702
300.618
300.549
300.491
300.442
300.401
300.366
300.337
300.313
300.294
300.279
300.269
300.264
300.001
300.005
300.011
300.021
300.033
300.051
300.075
300.108
300.156
300.223
300.317
300.447
300.627
300.896
301.519
303.344
302.562
302.352
302.267
302.245
302.268
302.338
302.46
302.648
302.928
303.358
304.068
305.486
309.291
305.329
302.809
302.027
301.596
301.306
301.093
300.93
300.801
300.698
300.613
300.543
300.485
300.437
300.396
300.361
300.333
300.309
300.291
300.276
300.267
300.262
300.001
300.005
300.012
300.021
300.034
300.051
300.075
300.106
300.15
300.21
300.292
300.402
300.554
300.782
301.355
303.206
302.507
302.294
302.194
302.154
302.157
302.204
302.296
302.443
302.662
302.986
303.488
304.377
306.58
305.17
302.849
302.06
301.614
301.312
301.092
300.925
300.795
300.69
300.606
300.536
300.479
300.43
300.39
300.356
300.328
300.305
300.287
300.273
300.264
300.26
300.002
300.006
300.013
300.022
300.035
300.051
300.074
300.104
300.144
300.197
300.269
300.365
300.495
300.696
301.235
303.099
302.449
302.231
302.117
302.06
302.046
302.071
302.137
302.247
302.412
302.651
303.006
303.617
305.313
305.062
302.862
302.07
301.614
301.306
301.082
300.914
300.784
300.68
300.596
300.527
300.471
300.423
300.384
300.351
300.323
300.301
300.283
300.27
300.261
300.257
300.002
300.006
300.013
300.023
300.035
300.051
300.072
300.1
300.137
300.185
300.248
300.332
300.446
300.629
301.142
303.009
302.387
302.161
302.035
301.963
301.934
301.941
301.984
302.063
302.184
302.36
302.621
303.091
304.582
304.987
302.855
302.059
301.597
301.287
301.064
300.897
300.768
300.666
300.584
300.517
300.462
300.416
300.377
300.345
300.318
300.297
300.28
300.267
300.258
300.254
300.002
300.007
300.014
300.023
300.035
300.05
300.07
300.096
300.13
300.173
300.23
300.304
300.406
300.575
301.067
302.931
302.321
302.085
301.948
301.864
301.822
301.814
301.837
301.891
301.979
302.109
302.31
302.696
304.037
304.938
302.832
302.028
301.564
301.256
301.036
300.873
300.748
300.65
300.57
300.505
300.452
300.407
300.37
300.339
300.313
300.292
300.276
300.263
300.255
300.251
300.002
300.007
300.014
300.023
300.035
300.049
300.068
300.092
300.123
300.162
300.213
300.279
300.372
300.53
301.004
302.858
302.25
302.003
301.854
301.761
301.709
301.689
301.698
301.732
301.794
301.892
302.051
302.381
303.609
304.902
302.789
301.975
301.514
301.212
301.001
300.844
300.725
300.631
300.555
300.493
300.441
300.398
300.362
300.333
300.308
300.288
300.272
300.26
300.252
300.248
300.002
300.007
300.014
300.023
300.034
300.048
300.066
300.088
300.117
300.152
300.198
300.257
300.342
300.49
300.95
302.79
302.173
301.911
301.753
301.654
301.595
301.567
301.565
301.585
301.628
301.701
301.829
302.116
303.248
304.866
302.719
301.898
301.446
301.158
300.957
300.811
300.698
300.609
300.538
300.479
300.43
300.389
300.355
300.326
300.302
300.283
300.268
300.256
300.249
300.245
300.002
300.008
300.014
300.023
300.034
300.047
300.064
300.085
300.11
300.143
300.184
300.238
300.315
300.454
300.901
302.721
302.087
301.808
301.644
301.541
301.48
301.448
301.438
301.448
301.477
301.531
301.633
301.879
302.92
304.811
302.605
301.789
301.359
301.092
300.908
300.773
300.669
300.587
300.52
300.464
300.418
300.379
300.347
300.319
300.297
300.278
300.264
300.253
300.246
300.242
300.002
300.008
300.015
300.023
300.033
300.046
300.062
300.081
300.104
300.134
300.171
300.22
300.29
300.421
300.853
302.654
301.983
301.688
301.522
301.423
301.364
301.331
301.318
301.321
301.339
301.377
301.456
301.662
302.61
304.687
302.422
301.642
301.253
301.016
300.853
300.732
300.638
300.563
300.501
300.45
300.406
300.37
300.339
300.313
300.291
300.273
300.259
300.249
300.242
300.239
300.002
300.008
300.015
300.023
300.032
300.045
300.059
300.077
300.099
300.126
300.159
300.203
300.267
300.387
300.805
302.576
301.844
301.542
301.387
301.299
301.247
301.218
301.204
301.203
301.213
301.238
301.294
301.454
302.291
304.299
302.127
301.452
301.131
300.934
300.795
300.69
300.607
300.539
300.482
300.435
300.394
300.36
300.331
300.306
300.285
300.269
300.255
300.245
300.239
300.236
300.002
300.008
300.014
300.022
300.032
300.043
300.057
300.074
300.094
300.118
300.148
300.188
300.245
300.352
300.76
302.53
301.637
301.362
301.239
301.171
301.131
301.108
301.097
301.094
301.098
301.112
301.146
301.252
301.918
303.277
301.692
301.23
301
300.849
300.737
300.648
300.575
300.515
300.463
300.42
300.382
300.35
300.323
300.299
300.28
300.264
300.251
300.242
300.236
300.233
300.002
300.008
300.014
300.022
300.031
300.042
300.055
300.07
300.089
300.111
300.139
300.174
300.223
300.311
300.644
301.704
301.283
301.148
301.082
301.043
301.019
301.004
300.996
300.993
300.993
300.998
301.012
301.055
301.366
301.619
301.195
301.01
300.875
300.768
300.681
300.607
300.544
300.491
300.445
300.405
300.37
300.34
300.315
300.293
300.274
300.259
300.247
300.238
300.232
300.23
300.002
300.008
300.014
300.021
300.03
300.04
300.053
300.067
300.084
300.105
300.13
300.161
300.204
300.271
300.425
300.828
300.92
300.935
300.929
300.919
300.912
300.906
300.903
300.901
300.9
300.899
300.898
300.9
300.924
300.944
300.905
300.843
300.769
300.696
300.628
300.568
300.515
300.468
300.427
300.391
300.359
300.331
300.307
300.287
300.269
300.255
300.243
300.235
300.229
300.227
300.002
300.008
300.014
300.021
300.029
300.039
300.051
300.064
300.08
300.099
300.122
300.151
300.188
300.243
300.345
300.555
300.691
300.76
300.792
300.806
300.813
300.816
300.818
300.818
300.816
300.812
300.805
300.793
300.779
300.772
300.758
300.729
300.685
300.633
300.582
300.533
300.488
300.447
300.41
300.377
300.348
300.322
300.3
300.28
300.264
300.25
300.239
300.231
300.226
300.224
300.002
300.007
300.013
300.02
300.028
300.038
300.049
300.062
300.077
300.095
300.116
300.142
300.176
300.223
300.301
300.432
300.549
300.629
300.678
300.707
300.724
300.735
300.741
300.743
300.742
300.738
300.728
300.714
300.695
300.681
300.669
300.649
300.619
300.581
300.541
300.501
300.462
300.427
300.394
300.364
300.337
300.314
300.293
300.275
300.259
300.246
300.236
300.228
300.223
300.221
300.002
300.007
300.013
300.02
300.027
300.037
300.047
300.059
300.073
300.09
300.11
300.134
300.165
300.207
300.27
300.362
300.456
300.531
300.586
300.622
300.646
300.662
300.672
300.677
300.677
300.674
300.665
300.651
300.634
300.619
300.606
300.59
300.567
300.538
300.506
300.472
300.44
300.408
300.379
300.352
300.328
300.306
300.286
300.269
300.254
300.242
300.232
300.225
300.22
300.218
300.002
300.007
300.013
300.019
300.027
300.035
300.045
300.057
300.07
300.086
300.105
300.127
300.156
300.194
300.246
300.316
300.391
300.458
300.511
300.551
300.579
300.598
300.611
300.618
300.62
300.618
300.611
300.599
300.585
300.572
300.559
300.544
300.525
300.502
300.475
300.447
300.419
300.391
300.365
300.341
300.318
300.298
300.28
300.264
300.25
300.238
300.229
300.222
300.217
300.215
300.002
300.007
300.012
300.019
300.026
300.034
300.044
300.055
300.068
300.083
300.1
300.121
300.148
300.182
300.226
300.283
300.344
300.402
300.452
300.491
300.521
300.542
300.557
300.566
300.57
300.57
300.564
300.555
300.544
300.532
300.521
300.507
300.491
300.471
300.449
300.425
300.401
300.376
300.353
300.33
300.31
300.291
300.274
300.259
300.246
300.235
300.226
300.219
300.215
300.213
300.002
300.007
300.012
300.018
300.025
300.033
300.042
300.053
300.065
300.079
300.096
300.116
300.14
300.171
300.209
300.256
300.308
300.358
300.403
300.441
300.471
300.493
300.51
300.521
300.526
300.527
300.524
300.518
300.509
300.499
300.489
300.477
300.463
300.446
300.427
300.406
300.384
300.362
300.341
300.321
300.302
300.284
300.268
300.254
300.242
300.231
300.223
300.217
300.212
300.21
300.002
300.006
300.011
300.017
300.024
300.032
300.041
300.051
300.062
300.076
300.092
300.111
300.133
300.161
300.195
300.235
300.279
300.323
300.364
300.399
300.428
300.451
300.468
300.48
300.487
300.49
300.489
300.485
300.478
300.47
300.461
300.451
300.438
300.424
300.407
300.389
300.37
300.35
300.331
300.312
300.295
300.278
300.263
300.25
300.238
300.228
300.22
300.214
300.21
300.208
300.002
300.006
300.011
300.017
300.023
300.031
300.039
300.049
300.06
300.073
300.088
300.106
300.127
300.152
300.182
300.217
300.255
300.294
300.331
300.363
300.391
300.414
300.432
300.445
300.453
300.457
300.458
300.456
300.451
300.445
300.437
300.428
300.417
300.404
300.39
300.374
300.357
300.339
300.322
300.305
300.288
300.273
300.259
300.246
300.235
300.226
300.218
300.212
300.208
300.206
300.002
300.006
300.01
300.016
300.022
300.029
300.038
300.047
300.058
300.07
300.085
300.101
300.121
300.144
300.171
300.202
300.235
300.27
300.303
300.333
300.36
300.382
300.4
300.413
300.423
300.428
300.431
300.43
300.427
300.423
300.416
300.408
300.399
300.388
300.375
300.36
300.345
300.329
300.313
300.298
300.282
300.268
300.255
300.243
300.232
300.223
300.216
300.21
300.206
300.204
300.002
300.005
300.01
300.015
300.021
300.028
300.036
300.045
300.056
300.068
300.081
300.097
300.115
300.136
300.161
300.188
300.218
300.249
300.279
300.307
300.332
300.354
300.372
300.385
300.396
300.403
300.406
300.407
300.406
300.402
300.397
300.391
300.383
300.373
300.361
300.349
300.335
300.321
300.306
300.291
300.277
300.264
300.251
300.24
300.23
300.221
300.214
300.208
300.204
300.203
300.002
300.005
300.009
300.014
300.02
300.027
300.035
300.044
300.054
300.065
300.078
300.093
300.11
300.129
300.152
300.176
300.203
300.231
300.258
300.284
300.308
300.329
300.346
300.361
300.372
300.379
300.384
300.386
300.386
300.384
300.381
300.375
300.368
300.36
300.35
300.338
300.326
300.313
300.299
300.286
300.273
300.26
300.248
300.237
300.227
300.219
300.212
300.207
300.203
300.201
300.001
300.005
300.009
300.014
300.019
300.026
300.034
300.042
300.052
300.062
300.075
300.089
300.105
300.123
300.143
300.166
300.19
300.215
300.24
300.264
300.287
300.307
300.324
300.338
300.35
300.358
300.364
300.368
300.369
300.368
300.366
300.361
300.356
300.348
300.339
300.329
300.318
300.306
300.294
300.281
300.269
300.257
300.245
300.235
300.225
300.217
300.211
300.205
300.202
300.2
300.001
300.004
300.008
300.013
300.019
300.025
300.032
300.04
300.05
300.06
300.072
300.085
300.1
300.117
300.135
300.156
300.178
300.201
300.224
300.247
300.268
300.287
300.304
300.318
300.33
300.339
300.346
300.351
300.353
300.353
300.352
300.349
300.344
300.338
300.33
300.321
300.311
300.3
300.289
300.277
300.265
300.254
300.243
300.233
300.224
300.216
300.209
300.204
300.201
300.199
300.001
300.004
300.008
300.012
300.018
300.024
300.031
300.039
300.048
300.057
300.069
300.081
300.095
300.111
300.128
300.147
300.167
300.188
300.21
300.231
300.251
300.269
300.286
300.3
300.312
300.322
300.33
300.335
300.338
300.34
300.339
300.338
300.334
300.329
300.322
300.314
300.305
300.295
300.285
300.274
300.263
300.252
300.241
300.232
300.223
300.215
300.209
300.204
300.2
300.198
300.001
300.004
300.007
300.012
300.017
300.023
300.03
300.037
300.046
300.055
300.066
300.077
300.091
300.105
300.121
300.139
300.157
300.177
300.197
300.216
300.235
300.253
300.269
300.284
300.296
300.306
300.314
300.321
300.325
300.327
300.328
300.327
300.325
300.321
300.315
300.308
300.3
300.291
300.281
300.271
300.261
300.25
300.24
300.231
300.222
300.215
300.208
300.203
300.2
300.198
300.001
300.003
300.007
300.011
300.016
300.022
300.028
300.036
300.044
300.053
300.063
300.074
300.086
300.1
300.115
300.131
300.148
300.166
300.185
300.203
300.221
300.238
300.254
300.268
300.281
300.292
300.3
300.307
300.313
300.316
300.318
300.318
300.316
300.313
300.309
300.303
300.296
300.287
300.278
300.269
300.259
300.249
300.24
300.231
300.222
300.214
300.208
300.203
300.199
300.198
300.001
300.003
300.006
300.01
300.015
300.021
300.027
300.034
300.042
300.05
300.06
300.07
300.082
300.094
300.108
300.123
300.139
300.156
300.173
300.191
300.208
300.225
300.24
300.254
300.267
300.278
300.287
300.295
300.301
300.305
300.308
300.309
300.309
300.307
300.303
300.298
300.292
300.285
300.276
300.267
300.258
300.249
300.24
300.231
300.222
300.215
300.208
300.203
300.2
300.198
300.001
300.003
300.006
300.01
300.014
300.02
300.026
300.032
300.04
300.048
300.057
300.067
300.077
300.089
300.102
300.116
300.131
300.147
300.163
300.179
300.196
300.212
300.227
300.241
300.254
300.265
300.275
300.283
300.29
300.295
300.299
300.301
300.302
300.301
300.298
300.294
300.289
300.282
300.275
300.267
300.258
300.249
300.24
300.231
300.223
300.216
300.209
300.204
300.2
300.198
300
300.002
300.005
300.009
300.013
300.018
300.024
300.031
300.038
300.045
300.054
300.063
300.073
300.084
300.096
300.109
300.123
300.138
300.153
300.168
300.184
300.199
300.214
300.228
300.241
300.253
300.263
300.272
300.28
300.286
300.29
300.293
300.295
300.295
300.294
300.291
300.286
300.281
300.274
300.267
300.259
300.25
300.241
300.233
300.224
300.217
300.21
300.205
300.201
300.199
300
300.002
300.005
300.008
300.012
300.017
300.023
300.029
300.035
300.043
300.051
300.059
300.069
300.079
300.09
300.102
300.115
300.129
300.143
300.157
300.172
300.187
300.201
300.215
300.228
300.24
300.251
300.261
300.269
300.276
300.282
300.286
300.289
300.29
300.29
300.288
300.285
300.28
300.274
300.267
300.26
300.252
300.243
300.235
300.226
300.219
300.212
300.206
300.202
300.199
300
300.002
300.004
300.007
300.011
300.016
300.021
300.027
300.033
300.04
300.047
300.055
300.064
300.074
300.084
300.095
300.107
300.119
300.133
300.146
300.16
300.174
300.188
300.202
300.215
300.228
300.239
300.249
300.259
300.267
300.273
300.279
300.283
300.285
300.286
300.285
300.283
300.28
300.275
300.269
300.262
300.254
300.246
300.238
300.229
300.222
300.214
300.208
300.203
300.201
300
300.001
300.004
300.007
300.01
300.014
300.019
300.024
300.03
300.037
300.043
300.051
300.059
300.068
300.077
300.087
300.098
300.109
300.121
300.134
300.147
300.16
300.174
300.187
300.2
300.213
300.225
300.236
300.246
300.255
300.263
300.27
300.275
300.279
300.281
300.282
300.282
300.279
300.276
300.271
300.265
300.257
300.25
300.242
300.233
300.225
300.218
300.211
300.206
300.202
300
300.001
300.002
300.005
300.008
300.012
300.016
300.021
300.026
300.032
300.038
300.044
300.052
300.059
300.067
300.076
300.085
300.095
300.106
300.117
300.129
300.141
300.153
300.166
300.179
300.192
300.205
300.217
300.228
300.238
300.248
300.257
300.264
300.27
300.275
300.277
300.279
300.279
300.277
300.274
300.269
300.263
300.255
300.248
300.239
300.231
300.223
300.216
300.209
300.204
)
;

boundaryField
{
    floor
    {
        type            zeroGradient;
    }
    ceiling
    {
        type            zeroGradient;
    }
    inlet
    {
        type            fixedValue;
        value           uniform 300;
    }
    outlet
    {
        type            inletOutlet;
        inletValue      uniform 300;
        value           nonuniform List<scalar> 
40
(
300.268
300.267
300.265
300.263
300.261
300.259
300.256
300.253
300.25
300.247
300.244
300.241
300.238
300.235
300.232
300.229
300.226
300.223
300.22
300.217
300.214
300.212
300.209
300.207
300.205
300.203
300.202
300.2
300.199
300.198
300.198
300.197
300.197
300.197
300.197
300.198
300.198
300.2
300.201
300.203
)
;
    }
    fixedWalls
    {
        type            empty;
    }
    baffleFacesThermoBaffle1D_master
    {
        type            compressible::thermalBaffle1D<hConstSolidThermoPhysics>;
        refValue        nonuniform List<scalar> 
16
(
322.116
316.117
313.388
311.987
311.099
310.48
310.016
309.652
309.353
309.096
308.874
308.669
308.467
308.255
308.02
306.891
)
;
        refGradient     uniform 0;
        valueFraction   nonuniform List<scalar> 
16
(
0.987125
0.983032
0.979346
0.976963
0.975229
0.973897
0.972816
0.971923
0.971191
0.970559
0.970067
0.969631
0.96918
0.968719
0.968007
0.960355
)
;
        value           nonuniform List<scalar> 
16
(
321.896
315.918
313.191
311.793
310.906
310.29
309.828
309.465
309.168
308.912
308.692
308.488
308.288
308.077
307.843
306.686
)
;
        sampleMode      nearestPatchFace;
        sampleRegion    region0;
        samplePatch     baffleFacesThermoBaffle1D_slave;
        coupleGroup     baffleFacesThermoBaffle1D;
        thickness       uniform 0.005;
        qs              uniform 100;
        specie
        {
            molWeight       20;
        }
        equationOfState
        {
            rho             10;
        }
        thermodynamics
        {
            Cp              10;
            Hf              0;
        }
        transport
        {
            kappa           1;
        }
        qrPrevious      uniform 0;
        qr              none;
        qrRelaxation    1;
    }
    baffleFacesThermoBaffle1D_slave
    {
        type            compressible::thermalBaffle1D<hConstSolidThermoPhysics>;
        refValue        nonuniform List<scalar> 
16
(
322.146
316.168
313.441
312.043
311.156
310.54
310.078
309.715
309.418
309.162
308.942
308.738
308.538
308.327
308.093
306.936
)
;
        refGradient     uniform 0;
        valueFraction   nonuniform List<scalar> 
16
(
0.984009
0.977617
0.973758
0.970985
0.968741
0.966919
0.965407
0.96411
0.962952
0.961887
0.960884
0.959905
0.9589
0.957787
0.956569
0.953926
)
;
        value           nonuniform List<scalar> 
16
(
321.873
315.876
313.146
311.744
310.855
310.236
309.772
309.407
309.109
308.851
308.629
308.424
308.222
308.009
307.774
306.647
)
;
        sampleMode      nearestPatchFace;
        sampleRegion    region0;
        samplePatch     baffleFacesThermoBaffle1D_master;
        coupleGroup     baffleFacesThermoBaffle1D;
        qrPrevious      uniform 0;
        qr              none;
        qrRelaxation    1;
    }
    baffleFacesThermoBaffle3D_master
    {
        type            compressible::thermalBaffle;
        refValue        nonuniform List<scalar> 
16
(
364.017
355.135
347.899
343.605
340.737
338.702
337.297
336.223
335.396
334.738
334.177
333.639
332.985
331.71
328.472
322.704
)
;
        refGradient     uniform 0;
        valueFraction   nonuniform List<scalar> 
16
(
0.941364
0.928098
0.915312
0.906978
0.901158
0.896806
0.893604
0.89086
0.888588
0.886697
0.88506
0.883524
0.88179
0.878422
0.86714
0.836686
)
;
        value           nonuniform List<scalar> 
16
(
360.619
351.613
344.337
340.065
337.237
335.241
333.867
332.813
332.002
331.357
330.808
330.281
329.639
328.377
325.124
319.26
)
;
        Tnbr            T;
        qrNbr           none;
        qr              none;
        thermalInertia  false;
        thicknessLayers 0();
        kappaLayers     0();
        kappaMethod     fluidThermo;
        kappa           none;
        alphaAni        none;
        extrudeModel    linearNormal;
        nLayers         50;
        expansionRatio  1;
        columnCells     false;
        linearNormalCoeffs 
        {
            thickness       0.02;
        }

        region          baffle3DRegion;
        active          yes;
        thermoType      
        {
            type            heSolidThermo;
            mixture         pureMixture;
            transport       constIso;
            thermo          hConst;
            equationOfState rhoConst;
            specie          specie;
            energy          sensibleEnthalpy;
        }

        mixture         
        {
            specie
            {
                molWeight       20;
            }
            transport
            {
                kappa           0.01;
            }
            thermodynamics
            {
                Hf              0;
                Cp              15;
            }
            equationOfState
            {
                rho             80;
            }
        }

        radiation       
        {
            radiationModel  opaqueSolid;
            absorptionEmissionModel none;
            scatterModel    none;
            transmissivityModel none;
        }

    }
    baffleFacesThermoBaffle3D_slave
    {
        type            compressible::thermalBaffle;
        refValue        nonuniform List<scalar> 
16
(
372.144
366.706
361.833
356.625
349.539
343.426
339.45
336.654
334.475
332.696
331.153
329.688
328.295
326.797
324.899
322.021
)
;
        refGradient     uniform 0;
        valueFraction   nonuniform List<scalar> 
16
(
0.946783
0.940529
0.933841
0.926509
0.917532
0.908552
0.900719
0.893935
0.887867
0.882324
0.87704
0.871507
0.865934
0.85963
0.850881
0.833189
)
;
        value           nonuniform List<scalar> 
16
(
368.897
363.424
358.57
353.364
346.218
340.056
336.06
333.252
331.062
329.273
327.721
326.248
324.851
323.357
321.471
318.575
)
;
        Tnbr            T;
        qrNbr           none;
        qr              none;
        thermalInertia  false;
        thicknessLayers 0();
        kappaLayers     0();
        kappaMethod     fluidThermo;
        kappa           none;
        alphaAni        none;
    }
}


// ************************************************************************* //
