/*--------------------------------*- C++ -*----------------------------------*\
| =========                 |                                                 |
| \\      /  F ield         | OpenFOAM: The Open Source CFD Toolbox           |
|  \\    /   O peration     | Version:  v1906                                 |
|   \\  /    A nd           | Web:      www.OpenFOAM.com                      |
|    \\/     M anipulation  |                                                 |
\*---------------------------------------------------------------------------*/
FoamFile
{
    version     2.0;
    format      ascii;
    class       volScalarField;
    location    "0.3";
    object      p;
}
// * * * * * * * * * * * * * * * * * * * * * * * * * * * * * * * * * * * * * //

dimensions      [0 2 -2 0 0 0 0];


internalField   nonuniform List<scalar> 
800
(
-6.58876e-08
0.00935086
0.022225
0.0350963
0.0488762
0.0634902
0.0792353
0.0964685
0.115698
0.137637
0.163286
0.194059
0.231938
0.279862
0.34249
0.424349
0.527354
0.696375
1.07692
1.25834
-0.00633043
0.00136021
0.0133194
0.0254259
0.0384379
0.0521626
0.0668245
0.0826864
0.100124
0.119642
0.1419
0.167735
0.19813
0.234132
0.276908
0.325435
0.369179
0.402604
0.449596
0.278698
-0.0180877
-0.0129511
-0.00253231
0.00827682
0.0199331
0.0321034
0.0448706
0.0583334
0.0726299
0.0878978
0.104213
0.121468
0.13912
0.155724
0.168348
0.170661
0.148526
0.0845258
-0.0341885
-0.281125
-0.0316577
-0.0285269
-0.0195907
-0.010117
8.1566e-05
0.0105603
0.0212453
0.0320536
0.0428615
0.053418
0.0632178
0.0713035
0.0759508
0.0742276
0.0615494
0.0310054
-0.0272717
-0.12318
-0.265432
-0.47307
-0.0469771
-0.0452625
-0.0377224
-0.029609
-0.0209635
-0.0123197
-0.00391212
0.00398776
0.0109948
0.0164964
0.0195045
0.0184664
0.0110425
-0.00608591
-0.0372402
-0.08756
-0.162278
-0.264767
-0.396214
-0.556612
-0.0645709
-0.0638663
-0.0577026
-0.051022
-0.0440733
-0.037462
-0.031578
-0.0268741
-0.0239699
-0.0237656
-0.0275661
-0.037196
-0.0550629
-0.0840906
-0.127432
-0.187949
-0.267377
-0.365209
-0.478381
-0.601208
-0.0846895
-0.0846611
-0.0798566
-0.0746802
-0.0695642
-0.0651651
-0.0620078
-0.0606968
-0.0620238
-0.0670571
-0.0772085
-0.0942476
-0.120218
-0.157206
-0.206944
-0.270301
-0.346739
-0.433907
-0.527726
-0.622802
-0.107457
-0.10781
-0.104326
-0.100707
-0.0975269
-0.0954691
-0.0951555
-0.0972896
-0.102746
-0.11262
-0.128222
-0.151015
-0.182433
-0.223615
-0.275059
-0.336301
-0.40572
-0.48056
-0.557277
-0.632082
-0.132978
-0.133474
-0.131253
-0.129224
-0.128042
-0.128388
-0.130929
-0.1364
-0.145657
-0.159686
-0.179545
-0.206245
-0.240568
-0.282836
-0.332704
-0.389042
-0.449964
-0.513037
-0.575628
-0.635327
-0.161341
-0.161802
-0.160767
-0.160335
-0.161162
-0.163895
-0.169183
-0.177715
-0.190241
-0.207536
-0.230319
-0.259133
-0.294192
-0.335249
-0.381509
-0.431656
-0.483978
-0.53659
-0.587693
-0.635825
-0.19259
-0.192895
-0.192955
-0.194093
-0.19688
-0.201889
-0.209691
-0.220863
-0.235975
-0.255539
-0.279928
-0.309276
-0.343395
-0.381714
-0.423296
-0.466915
-0.511199
-0.554801
-0.596554
-0.635597
-0.226714
-0.226793
-0.227839
-0.23048
-0.235116
-0.2422
-0.252175
-0.265453
-0.282388
-0.303224
-0.328033
-0.356651
-0.388655
-0.423356
-0.45986
-0.497159
-0.534237
-0.570182
-0.604267
-0.635998
-0.263634
-0.263453
-0.265364
-0.269406
-0.275723
-0.284609
-0.296339
-0.311132
-0.329124
-0.350324
-0.374579
-0.401548
-0.43071
-0.461395
-0.49285
-0.524306
-0.555057
-0.584515
-0.612244
-0.637973
-0.303186
-0.302736
-0.305394
-0.310708
-0.3185
-0.328871
-0.341908
-0.357633
-0.375986
-0.396799
-0.419776
-0.444498
-0.47045
-0.497055
-0.523729
-0.549926
-0.575181
-0.599135
-0.621541
-0.642265
-0.345094
-0.34439
-0.347698
-0.35416
-0.363224
-0.374768
-0.388689
-0.40483
-0.422977
-0.442842
-0.464063
-0.48622
-0.508857
-0.531519
-0.553786
-0.575296
-0.595766
-0.614996
-0.632867
-0.649333
-0.388925
-0.387992
-0.391911
-0.399457
-0.409655
-0.422139
-0.436623
-0.452798
-0.47034
-0.488902
-0.508116
-0.527612
-0.547029
-0.566042
-0.584371
-0.601798
-0.618168
-0.633384
-0.647405
-0.660238
-0.434013
-0.432871
-0.437439
-0.446112
-0.457438
-0.47079
-0.485714
-0.501778
-0.518573
-0.535722
-0.552876
-0.569729
-0.586022
-0.601551
-0.61617
-0.629791
-0.642372
-0.65391
-0.664431
-0.673986
-0.479538
-0.478408
-0.483869
-0.493852
-0.506391
-0.520614
-0.535954
-0.551916
-0.568072
-0.584068
-0.599606
-0.614447
-0.62841
-0.641368
-0.653244
-0.66401
-0.673678
-0.682288
-0.689905
-0.696614
-0.524528
-0.524864
-0.532564
-0.54483
-0.559215
-0.57463
-0.590406
-0.605998
-0.620978
-0.635046
-0.648005
-0.659755
-0.670267
-0.679572
-0.687741
-0.69487
-0.701066
-0.706441
-0.711095
-0.715121
-0.562836
-0.566825
-0.578857
-0.595414
-0.613882
-0.633105
-0.652366
-0.671043
-0.688615
-0.704691
-0.719005
-0.731411
-0.741869
-0.750424
-0.757191
-0.762329
-0.766023
-0.768472
-0.769881
-0.770459
-1.19004
-2.29641
-2.32439
-2.1176
-1.91988
-1.75795
-1.62968
-1.52786
-1.44505
-1.37594
-1.31705
-1.26604
-1.22128
-1.18162
-1.14626
-1.1147
-1.0869
-1.06291
-1.04503
-1.03185
-0.806082
-1.47577
-1.69441
-1.7255
-1.68646
-1.61761
-1.54194
-1.47021
-1.40542
-1.34772
-1.29643
-1.2507
-1.20975
-1.17295
-1.13981
-1.11006
-1.08379
-1.06111
-1.0443
-1.03163
-0.741001
-1.11904
-1.34319
-1.45271
-1.48967
-1.48123
-1.4486
-1.40571
-1.35999
-1.31504
-1.27248
-1.23288
-1.19637
-1.16288
-1.1323
-1.1046
-1.08004
-1.05878
-1.04314
-1.03113
-0.735561
-0.975924
-1.15717
-1.27319
-1.33648
-1.36041
-1.35766
-1.33869
-1.31086
-1.27888
-1.24565
-1.21281
-1.18126
-1.15148
-1.12376
-1.09831
-1.07558
-1.05584
-1.04142
-1.03027
-0.728638
-0.890202
-1.03017
-1.13683
-1.2094
-1.25164
-1.26958
-1.26977
-1.25798
-1.23869
-1.21518
-1.18969
-1.16368
-1.13812
-1.11366
-1.09079
-1.07012
-1.05206
-1.039
-1.02894
-0.721182
-0.8347
-0.941959
-1.03397
-1.10585
-1.15643
-1.18729
-1.20163
-1.20317
-1.19545
-1.18145
-1.16354
-1.14349
-1.12258
-1.10176
-1.08178
-1.06343
-1.04725
-1.03572
-1.02697
-0.711545
-0.795852
-0.879422
-0.956618
-1.02275
-1.07504
-1.11269
-1.13651
-1.14834
-1.15046
-1.14522
-1.13473
-1.12077
-1.10478
-1.08791
-1.07111
-1.0553
-1.04119
-1.03134
-1.0241
-0.7005
-0.765738
-0.832214
-0.896603
-0.955407
-1.0058
-1.04604
-1.07554
-1.09474
-1.10478
-1.10719
-1.1036
-1.09562
-1.08466
-1.07193
-1.05852
-1.04546
-1.03359
-1.02559
-1.01998
-0.689438
-0.741247
-0.794998
-0.84876
-0.900142
-0.946818
-0.986904
-1.01919
-1.04321
-1.05921
-1.06794
-1.07051
-1.06815
-1.06212
-1.05361
-1.04372
-1.03356
-1.02407
-1.01805
-1.01409
-0.679301
-0.721117
-0.765064
-0.810026
-0.854437
-0.896564
-0.934751
-0.967633
-0.994304
-1.01439
-1.02803
-1.03578
-1.03847
-1.03709
-1.0327
-1.02636
-1.01917
-1.01213
-1.0082
-1.00577
-0.670833
-0.704873
-0.741
-0.778577
-0.816609
-0.85388
-0.889079
-0.920955
-0.948464
-0.970904
-0.987971
-0.999758
-1.0067
-1.00947
-1.00893
-1.00601
-1.00174
-0.997176
-0.995323
-0.994133
-0.664638
-0.692412
-0.72211
-0.753382
-0.785613
-0.817985
-0.849535
-0.879232
-0.906094
-0.929302
-0.948302
-0.962855
-0.973045
-0.979242
-0.982045
-0.982227
-0.980685
-0.978442
-0.978534
-0.978097
-0.661198
-0.683788
-0.708075
-0.733878
-0.76083
-0.788401
-0.815917
-0.842596
-0.867608
-0.890172
-0.90964
-0.925581
-0.937823
-0.946468
-0.951865
-0.954581
-0.955341
-0.955097
-0.956798
-0.956404
-0.660959
-0.67917
-0.698814
-0.719806
-0.741935
-0.764866
-0.78815
-0.811221
-0.833436
-0.854129
-0.872677
-0.88858
-0.901519
-0.911399
-0.918357
-0.922754
-0.925117
-0.92629
-0.929001
-0.927708
-0.664162
-0.678615
-0.694226
-0.710957
-0.728682
-0.747191
-0.766185
-0.785273
-0.803981
-0.821784
-0.838153
-0.852613
-0.864798
-0.874507
-0.881727
-0.886643
-0.889595
-0.891293
-0.894102
-0.890743
-0.671731
-0.682878
-0.694878
-0.707718
-0.72132
-0.735549
-0.750206
-0.765022
-0.779659
-0.793723
-0.806799
-0.818487
-0.82845
-0.836461
-0.842435
-0.846443
-0.84867
-0.849698
-0.851396
-0.844645
-0.682504
-0.690769
-0.699636
-0.709063
-0.718974
-0.729256
-0.739753
-0.750257
-0.760516
-0.770243
-0.779133
-0.78689
-0.79326
-0.798068
-0.801237
-0.802788
-0.802811
-0.801779
-0.800953
-0.789425
-0.702392
-0.707752
-0.71331
-0.719058
-0.724934
-0.730849
-0.73669
-0.742311
-0.747534
-0.752156
-0.755959
-0.758735
-0.760303
-0.760543
-0.759407
-0.756906
-0.753075
-0.748315
-0.743229
-0.725372
-0.718584
-0.721931
-0.725364
-0.728732
-0.731917
-0.734779
-0.737147
-0.738824
-0.739601
-0.739265
-0.737626
-0.734533
-0.729904
-0.723743
-0.716142
-0.707244
-0.697205
-0.686473
-0.674913
-0.649184
-0.770284
-0.76917
-0.76727
-0.764662
-0.761226
-0.756815
-0.751297
-0.744551
-0.736475
-0.726991
-0.716066
-0.703736
-0.690123
-0.675452
-0.660041
-0.644256
-0.628452
-0.612906
-0.59547
-0.563087
)
;

boundaryField
{
    zeroGradPlanes
    {
        type            zeroGradient;
    }
    inlet
    {
        type            zeroGradient;
    }
    plate
    {
        type            zeroGradient;
    }
    frontAndBack
    {
        type            empty;
    }
}


// ************************************************************************* //
