/*--------------------------------*- C++ -*----------------------------------*\
| =========                 |                                                 |
| \\      /  F ield         | OpenFOAM: The Open Source CFD Toolbox           |
|  \\    /   O peration     | Version:  v1906                                 |
|   \\  /    A nd           | Web:      www.OpenFOAM.com                      |
|    \\/     M anipulation  |                                                 |
\*---------------------------------------------------------------------------*/
FoamFile
{
    version     2.0;
    format      ascii;
    class       surfaceScalarField;
    location    "0.3";
    object      phi;
}
// * * * * * * * * * * * * * * * * * * * * * * * * * * * * * * * * * * * * * //

dimensions      [0 3 -1 0 0 0 0];
oriented        oriented;


internalField   nonuniform List<scalar> 
1540
(
1.97821e-05
2.48558e-06
1.96317e-05
7.69092e-06
1.94779e-05
1.21518e-05
1.93263e-05
1.58704e-05
1.91783e-05
1.8953e-05
1.90336e-05
2.15166e-05
1.88914e-05
2.3664e-05
1.87505e-05
2.54744e-05
1.86092e-05
2.70002e-05
1.84654e-05
2.82649e-05
1.83162e-05
2.92638e-05
1.81574e-05
2.99664e-05
1.79828e-05
3.03195e-05
1.77825e-05
3.02512e-05
1.7541e-05
2.96737e-05
1.72348e-05
2.84824e-05
1.68192e-05
2.65637e-05
1.61586e-05
2.38082e-05
1.49419e-05
1.99944e-05
1.43961e-05
1.30544e-05
2.1535e-05
2.61035e-06
2.1373e-05
7.85296e-06
2.12066e-05
1.23181e-05
2.10436e-05
1.60335e-05
2.08849e-05
1.91117e-05
2.07307e-05
2.16708e-05
2.05803e-05
2.38144e-05
2.04329e-05
2.56218e-05
2.02877e-05
2.71455e-05
2.01435e-05
2.8409e-05
1.99993e-05
2.94081e-05
1.98536e-05
3.01121e-05
1.97051e-05
3.04679e-05
1.95526e-05
3.04037e-05
1.93945e-05
2.98318e-05
1.92276e-05
2.86493e-05
1.90499e-05
2.67413e-05
1.88623e-05
2.39958e-05
1.85958e-05
2.02609e-05
1.52587e-05
1.77332e-05
2.3447e-05
2.7378e-06
2.32751e-05
8.02491e-06
2.30979e-05
1.24953e-05
2.29252e-05
1.62063e-05
2.27586e-05
1.92782e-05
2.25989e-05
2.18306e-05
2.24462e-05
2.39671e-05
2.23008e-05
2.57672e-05
2.21638e-05
2.72825e-05
2.2037e-05
2.85359e-05
2.19235e-05
2.95215e-05
2.18285e-05
3.02071e-05
2.17601e-05
3.05363e-05
2.17305e-05
3.04333e-05
2.17553e-05
2.9807e-05
2.18497e-05
2.85549e-05
2.2015e-05
2.6576e-05
2.221e-05
2.38008e-05
2.22626e-05
2.02083e-05
1.58789e-05
2.16424e-05
2.55322e-05
2.86408e-06
2.53535e-05
8.20356e-06
2.51683e-05
1.26805e-05
2.49891e-05
1.63855e-05
2.48192e-05
1.94481e-05
2.466e-05
2.19897e-05
2.45133e-05
2.41138e-05
2.43817e-05
2.58988e-05
2.42692e-05
2.7395e-05
2.41822e-05
2.86228e-05
2.41302e-05
2.95736e-05
2.41264e-05
3.02108e-05
2.41886e-05
3.04741e-05
2.43377e-05
3.02842e-05
2.45934e-05
2.95513e-05
2.49605e-05
2.81878e-05
2.54055e-05
2.6131e-05
2.58267e-05
2.33796e-05
2.60108e-05
2.00243e-05
1.62866e-05
2.56031e-05
2.78053e-05
2.98539e-06
2.76245e-05
8.38432e-06
2.7436e-05
1.2869e-05
2.72556e-05
1.65658e-05
2.70888e-05
1.9615e-05
2.69388e-05
2.21397e-05
2.68095e-05
2.42431e-05
2.67067e-05
2.60016e-05
2.66388e-05
2.74629e-05
2.66176e-05
2.8644e-05
2.66594e-05
2.95318e-05
2.67842e-05
3.0086e-05
2.70146e-05
3.02436e-05
2.7371e-05
2.99279e-05
2.78607e-05
2.90616e-05
2.84618e-05
2.75867e-05
2.91029e-05
2.549e-05
2.96505e-05
2.28319e-05
2.99125e-05
1.97623e-05
1.65202e-05
2.96789e-05
3.02827e-05
3.09793e-06
3.01059e-05
8.56111e-06
2.99208e-05
1.30542e-05
2.97469e-05
1.67397e-05
2.95923e-05
1.97695e-05
2.94628e-05
2.22692e-05
2.93654e-05
2.43405e-05
2.93097e-05
2.60573e-05
2.9309e-05
2.74636e-05
2.93807e-05
2.85723e-05
2.9546e-05
2.93665e-05
2.98281e-05
2.98039e-05
3.02475e-05
2.98243e-05
3.08136e-05
2.93618e-05
3.15128e-05
2.83624e-05
3.22947e-05
2.68048e-05
3.30635e-05
2.47212e-05
3.36839e-05
2.22115e-05
3.4007e-05
1.94391e-05
1.66095e-05
3.39177e-05
3.29822e-05
3.19795e-06
3.28169e-05
8.72641e-06
3.26442e-05
1.32269e-05
3.24869e-05
1.6897e-05
3.23566e-05
1.98999e-05
3.2262e-05
2.23638e-05
3.22137e-05
2.43888e-05
3.22255e-05
2.60455e-05
3.23154e-05
2.73737e-05
3.25048e-05
2.83829e-05
3.28168e-05
2.90545e-05
3.32722e-05
2.93486e-05
3.38824e-05
2.9214e-05
3.46404e-05
2.86038e-05
3.551e-05
2.74927e-05
3.64205e-05
2.58942e-05
3.72693e-05
2.38725e-05
3.79386e-05
2.15421e-05
3.83241e-05
1.90537e-05
1.65673e-05
3.83663e-05
3.59227e-05
3.28182e-06
3.57778e-05
8.87128e-06
3.5629e-05
1.33757e-05
3.55016e-05
1.70244e-05
3.54103e-05
1.99912e-05
3.53675e-05
2.24066e-05
3.53875e-05
2.43688e-05
3.5488e-05
2.5945e-05
3.56901e-05
2.71716e-05
3.60166e-05
2.80564e-05
3.64884e-05
2.85827e-05
3.71189e-05
2.8718e-05
3.79062e-05
2.84267e-05
3.88254e-05
2.76847e-05
3.98233e-05
2.64948e-05
4.08204e-05
2.48972e-05
4.17208e-05
2.29721e-05
4.24315e-05
2.08314e-05
4.28836e-05
1.86017e-05
1.64028e-05
4.30481e-05
3.91252e-05
3.34611e-06
3.90109e-05
8.98557e-06
3.88997e-05
1.34869e-05
3.88179e-05
1.71062e-05
3.87831e-05
2.0026e-05
3.8811e-05
2.23787e-05
3.89192e-05
2.42606e-05
3.9128e-05
2.57362e-05
3.94595e-05
2.68401e-05
3.99346e-05
2.75813e-05
4.05682e-05
2.79491e-05
4.13629e-05
2.79233e-05
4.23025e-05
2.74871e-05
4.33476e-05
2.66396e-05
4.44359e-05
2.54064e-05
4.54891e-05
2.3844e-05
4.64255e-05
2.20356e-05
4.71757e-05
2.00812e-05
4.76955e-05
1.80818e-05
1.6126e-05
4.79722e-05
4.26124e-05
3.38749e-06
4.25398e-05
9.05817e-06
4.24816e-05
1.35451e-05
4.24634e-05
1.71245e-05
4.25044e-05
1.9985e-05
4.26228e-05
2.22603e-05
4.28381e-05
2.40453e-05
4.31715e-05
2.54028e-05
4.36433e-05
2.63683e-05
4.42695e-05
2.69551e-05
4.50562e-05
2.71623e-05
4.59945e-05
2.69851e-05
4.70558e-05
2.64258e-05
4.81921e-05
2.55033e-05
4.93395e-05
2.42591e-05
5.04274e-05
2.2756e-05
5.13903e-05
2.10728e-05
5.2178e-05
1.92934e-05
5.2763e-05
1.74968e-05
1.57483e-05
5.31408e-05
4.6409e-05
3.40279e-06
4.63898e-05
9.07742e-06
4.64014e-05
1.35335e-05
4.64661e-05
1.70598e-05
4.6603e-05
1.98481e-05
4.68309e-05
2.20323e-05
4.71697e-05
2.37065e-05
4.76386e-05
2.49339e-05
4.82541e-05
2.57528e-05
4.90249e-05
2.61843e-05
4.99475e-05
2.62397e-05
5.10027e-05
2.59299e-05
5.21539e-05
2.52745e-05
5.335e-05
2.43073e-05
5.45312e-05
2.30779e-05
5.5638e-05
2.16492e-05
5.66196e-05
2.00911e-05
5.74409e-05
1.84722e-05
5.80846e-05
1.68531e-05
1.52825e-05
5.85504e-05
5.0542e-05
3.38891e-06
5.05879e-05
9.03152e-06
5.06865e-05
1.34349e-05
5.08537e-05
1.68926e-05
5.11059e-05
1.95959e-05
5.14603e-05
2.1678e-05
5.19343e-05
2.32325e-05
5.25436e-05
2.43245e-05
5.32985e-05
2.4998e-05
5.41996e-05
2.52832e-05
5.52349e-05
2.52044e-05
5.63778e-05
2.47871e-05
5.75882e-05
2.40642e-05
5.88167e-05
2.30787e-05
6.00112e-05
2.18834e-05
6.11235e-05
2.05369e-05
6.21157e-05
1.9099e-05
6.29632e-05
1.76247e-05
6.36555e-05
1.61608e-05
1.47437e-05
6.41942e-05
5.50409e-05
3.34275e-06
5.51636e-05
8.90881e-06
5.5366e-05
1.32325e-05
5.56544e-05
1.66042e-05
5.6039e-05
1.92113e-05
5.65327e-05
2.11843e-05
5.71485e-05
2.26167e-05
5.78962e-05
2.35768e-05
5.87791e-05
2.41151e-05
5.97906e-05
2.42717e-05
6.09121e-05
2.40829e-05
6.21132e-05
2.35859e-05
6.33545e-05
2.28229e-05
6.45917e-05
2.18415e-05
6.57815e-05
2.06936e-05
6.68865e-05
1.94319e-05
6.78789e-05
1.81065e-05
6.8742e-05
1.67616e-05
6.94695e-05
1.54333e-05
1.41493e-05
7.0064e-05
5.9938e-05
3.26097e-06
6.0149e-05
8.69781e-06
6.04712e-05
1.29102e-05
6.08973e-05
1.61782e-05
6.14281e-05
1.86805e-05
6.20692e-05
2.05431e-05
6.28271e-05
2.18589e-05
6.37048e-05
2.26991e-05
6.46989e-05
2.3121e-05
6.57969e-05
2.31738e-05
6.69766e-05
2.29031e-05
6.82076e-05
2.23549e-05
6.94539e-05
2.15766e-05
7.06783e-05
2.06172e-05
7.18464e-05
1.95255e-05
7.29303e-05
1.8348e-05
7.39102e-05
1.71266e-05
7.47749e-05
1.58969e-05
7.55211e-05
1.46871e-05
1.35186e-05
7.61518e-05
6.5269e-05
3.13943e-06
6.55803e-05
8.38645e-06
6.60377e-05
1.24528e-05
6.66157e-05
1.56002e-05
6.73023e-05
1.79939e-05
6.80937e-05
1.97517e-05
6.89881e-05
2.09644e-05
6.99819e-05
2.17053e-05
7.1066e-05
2.2037e-05
7.22244e-05
2.20153e-05
7.34344e-05
2.16931e-05
7.46681e-05
2.11213e-05
7.5895e-05
2.03497e-05
7.70858e-05
1.94264e-05
7.82145e-05
1.83967e-05
7.92613e-05
1.73012e-05
8.02127e-05
1.61752e-05
8.10618e-05
1.50478e-05
8.18073e-05
1.39416e-05
1.28736e-05
8.24523e-05
7.1074e-05
2.97177e-06
7.15003e-05
7.96012e-06
7.21089e-05
1.18443e-05
7.28512e-05
1.48579e-05
7.36997e-05
1.71454e-05
7.46391e-05
1.88123e-05
7.56596e-05
1.9944e-05
7.67511e-05
2.06138e-05
7.79011e-05
2.08869e-05
7.90927e-05
2.08238e-05
8.0305e-05
2.04808e-05
8.15148e-05
1.99115e-05
8.26985e-05
1.9166e-05
8.38344e-05
1.82905e-05
8.49045e-05
1.73266e-05
8.58955e-05
1.63102e-05
8.6799e-05
1.52717e-05
8.76115e-05
1.42353e-05
8.83334e-05
1.32198e-05
1.22391e-05
8.89679e-05
7.73995e-05
2.74664e-06
7.79616e-05
7.39799e-06
7.874e-05
1.10658e-05
7.96587e-05
1.39393e-05
8.06725e-05
1.61315e-05
8.17547e-05
1.77301e-05
8.28874e-05
1.88113e-05
8.40561e-05
1.94451e-05
8.52464e-05
1.96966e-05
8.64427e-05
1.96274e-05
8.76283e-05
1.92952e-05
8.87861e-05
1.87537e-05
8.99e-05
1.80521e-05
9.09561e-05
1.72344e-05
9.19438e-05
1.63389e-05
9.28556e-05
1.53984e-05
9.36879e-05
1.44394e-05
9.44398e-05
1.34834e-05
9.5113e-05
1.25465e-05
1.16408e-05
9.57113e-05
8.43041e-05
2.43897e-06
8.50331e-05
6.669e-06
8.60034e-05
1.00955e-05
8.7109e-05
1.28337e-05
8.82886e-05
1.4952e-05
8.95053e-05
1.65134e-05
9.07352e-05
1.75814e-05
9.19612e-05
1.82191e-05
9.31692e-05
1.84886e-05
9.43465e-05
1.84501e-05
9.54815e-05
1.81601e-05
9.65639e-05
1.76714e-05
9.75847e-05
1.70313e-05
9.85372e-05
1.62818e-05
9.94171e-05
1.5459e-05
0.000100222
1.4593e-05
0.000100954
1.37083e-05
0.000101613
1.28244e-05
0.000102203
1.19563e-05
1.11148e-05
0.000102729
9.18698e-05
1.99078e-06
9.28064e-05
5.73239e-06
9.39886e-05
8.91325e-06
9.52867e-05
1.15356e-05
9.66274e-05
1.36113e-05
9.7966e-05
1.51748e-05
9.92741e-05
1.62733e-05
0.000100533
1.69601e-05
0.000101731
1.72911e-05
0.000102859
1.73219e-05
0.000103913
1.71061e-05
0.00010489
1.66939e-05
0.000105791
1.6131e-05
0.000106615
1.54576e-05
0.000107365
1.47086e-05
0.000108045
1.39133e-05
0.000108658
1.30953e-05
0.000109209
1.22737e-05
0.000109702
1.1463e-05
1.06741e-05
0.000110143
0.000100142
0.000101314
0.000102713
0.00010421
0.000105725
0.000107207
0.00010862
0.000109943
0.000111161
0.000112267
0.000113261
0.000114145
0.000114926
0.000115611
0.000116209
0.000116731
0.000117184
0.000117577
0.00011792
0.000118217
7.02669e-06
6.02769e-06
4.03505e-06
2.99164e-06
2.58388e-06
1.45117e-06
1.84762e-06
7.36263e-07
1.43863e-06
4.0899e-07
1.18333e-06
2.55299e-07
1.00605e-06
1.77283e-07
8.73493e-07
1.32555e-07
7.69738e-07
1.03756e-07
6.86105e-07
8.36327e-08
6.17336e-07
6.87686e-08
5.60055e-07
5.7281e-08
5.12067e-07
4.79882e-08
4.72003e-07
4.00639e-08
4.3914e-07
3.28632e-08
4.1332e-07
2.58199e-08
3.94836e-07
1.84839e-08
3.84368e-07
1.04684e-08
3.81012e-07
3.35511e-09
-1.75141e-09
1.452e-05
9.2409e-06
1.11665e-05
6.34518e-06
8.49544e-06
4.12218e-06
6.57871e-06
2.653e-06
5.24681e-06
1.74089e-06
4.31295e-06
1.18916e-06
3.63757e-06
8.52661e-07
3.13079e-06
6.39339e-07
2.7375e-06
4.97038e-07
2.42385e-06
3.97289e-07
2.16845e-06
3.24165e-07
1.95748e-06
2.68255e-07
1.78187e-06
2.23591e-07
1.63587e-06
1.8607e-07
1.51615e-06
1.52579e-07
1.42144e-06
1.2053e-07
1.35215e-06
8.77797e-08
1.3094e-06
5.32179e-08
1.29145e-06
2.13012e-08
9.69575e-10
1.98143e-05
1.1069e-05
1.7185e-05
8.97449e-06
1.44255e-05
6.88165e-06
1.19607e-05
5.11778e-06
9.93742e-06
3.76421e-06
8.34277e-06
2.78381e-06
7.10122e-06
2.09421e-06
6.12948e-06
1.61108e-06
5.35842e-06
1.26809e-06
4.73677e-06
1.01894e-06
4.22817e-06
8.32763e-07
3.80733e-06
6.89096e-07
3.4569e-06
5.74029e-07
3.16535e-06
4.7761e-07
2.92576e-06
3.92169e-07
2.73494e-06
3.11352e-07
2.59289e-06
2.29829e-07
2.50078e-06
1.45327e-07
2.45623e-06
6.58593e-08
1.58567e-08
2.44416e-05
1.22305e-05
2.25011e-05
1.0915e-05
2.00915e-05
9.29133e-06
1.75751e-05
7.63409e-06
1.5212e-05
6.12735e-06
1.31349e-05
4.86095e-06
1.13783e-05
3.85079e-06
9.92053e-06
3.06885e-06
8.71764e-06
2.47098e-06
7.72321e-06
2.01337e-06
6.89681e-06
1.65916e-06
6.20638e-06
1.37953e-06
5.62788e-06
1.15252e-06
5.14437e-06
9.61126e-07
4.745e-06
7.91532e-07
4.42437e-06
6.31991e-07
4.18171e-06
4.72485e-07
4.01823e-06
3.08805e-07
3.93083e-06
1.5326e-07
5.24134e-08
2.89113e-05
1.29982e-05
2.75095e-05
1.23167e-05
2.55593e-05
1.12415e-05
2.32681e-05
9.92537e-06
2.08649e-05
8.53046e-06
1.85363e-05
7.1896e-06
1.63997e-05
5.98736e-06
1.45083e-05
4.96024e-06
1.28698e-05
4.10952e-06
1.14667e-05
3.41651e-06
1.02714e-05
2.85439e-06
9.25558e-06
2.39538e-06
8.39413e-06
2.01397e-06
7.66757e-06
1.68769e-06
7.06254e-06
1.39656e-06
6.57194e-06
1.12259e-06
6.19454e-06
8.49892e-07
5.93195e-06
5.71396e-07
5.78081e-06
3.044e-07
1.23413e-07
3.34258e-05
1.34901e-05
3.24391e-05
1.33034e-05
3.0936e-05
1.27446e-05
2.8995e-05
1.18663e-05
2.67616e-05
1.07639e-05
2.44016e-05
9.54956e-06
2.20625e-05
8.32647e-06
1.98509e-05
7.17181e-06
1.78293e-05
6.13121e-06
1.60234e-05
5.22241e-06
1.44348e-05
4.44296e-06
1.30519e-05
3.7783e-06
1.1858e-05
3.20783e-06
1.08371e-05
2.70854e-06
9.97702e-06
2.25668e-06
9.271e-06
1.82861e-06
8.71864e-06
1.40226e-06
8.32312e-06
9.66909e-07
8.08208e-06
5.45444e-07
2.45666e-07
3.80887e-05
1.37677e-05
3.74279e-05
1.39642e-05
3.63209e-05
1.38516e-05
3.4766e-05
1.34212e-05
3.28257e-05
1.27042e-05
3.06102e-05
1.17651e-05
2.82499e-05
1.06868e-05
2.5869e-05
9.55273e-06
2.3567e-05
8.4332e-06
2.14121e-05
7.37727e-06
1.94433e-05
6.41177e-06
1.76772e-05
5.54442e-06
1.61164e-05
4.76866e-06
1.47567e-05
4.06818e-06
1.35932e-05
3.42023e-06
1.26237e-05
2.79813e-06
1.18514e-05
2.17453e-06
1.12834e-05
1.53488e-06
1.09207e-05
9.0813e-07
4.40819e-07
4.29478e-05
1.3868e-05
4.25523e-05
1.43597e-05
4.17877e-05
1.46163e-05
4.06104e-05
1.45985e-05
3.90221e-05
1.42925e-05
3.7072e-05
1.37151e-05
3.48481e-05
1.29107e-05
3.24589e-05
1.1942e-05
3.00138e-05
1.08782e-05
2.76085e-05
9.78261e-06
2.5316e-05
8.70427e-06
2.31862e-05
7.67425e-06
2.12493e-05
6.70552e-06
1.95223e-05
5.79522e-06
1.8015e-05
4.92754e-06
1.6736e-05
4.07704e-06
1.56971e-05
3.21351e-06
1.49128e-05
2.31916e-06
1.43914e-05
1.42954e-06
7.36026e-07
4.80234e-05
1.38169e-05
4.78501e-05
1.45329e-05
4.73808e-05
1.50856e-05
4.65543e-05
1.54249e-05
4.53347e-05
1.55121e-05
4.37217e-05
1.53281e-05
4.17543e-05
1.48781e-05
3.95051e-05
1.41912e-05
3.70681e-05
1.33152e-05
3.45438e-05
1.23069e-05
3.2026e-05
1.12221e-05
2.95934e-05
1.01069e-05
2.73064e-05
8.99249e-06
2.52094e-05
7.89218e-06
2.33351e-05
6.80188e-06
2.17102e-05
5.70198e-06
2.03608e-05
4.56285e-06
1.9315e-05
3.36498e-06
1.85936e-05
2.15092e-06
1.16428e-06
5.33223e-05
1.36354e-05
5.33376e-05
1.45176e-05
5.31226e-05
1.53006e-05
5.26127e-05
1.59349e-05
5.17529e-05
1.6372e-05
5.05092e-05
1.65718e-05
4.88779e-05
1.65094e-05
4.68892e-05
1.61798e-05
4.46049e-05
1.55996e-05
4.21091e-05
1.48027e-05
3.94969e-05
1.38342e-05
3.68629e-05
1.2741e-05
3.42925e-05
1.15629e-05
3.18583e-05
1.03263e-05
2.96209e-05
9.03934e-06
2.76317e-05
7.69119e-06
2.59387e-05
6.25586e-06
2.45897e-05
4.71392e-06
2.36255e-05
3.11518e-06
1.76403e-06
5.88429e-05
1.33429e-05
5.90176e-05
1.43428e-05
5.90201e-05
1.52981e-05
5.87895e-05
1.61655e-05
5.82646e-05
1.68969e-05
5.73927e-05
1.74437e-05
5.61392e-05
1.77629e-05
5.44961e-05
1.7823e-05
5.24862e-05
1.76094e-05
5.0163e-05
1.71259e-05
4.76041e-05
1.63931e-05
4.49022e-05
1.54428e-05
4.21551e-05
1.43101e-05
3.94575e-05
1.30239e-05
3.68969e-05
1.15999e-05
3.45536e-05
1.00345e-05
3.25031e-05
8.3063e-06
3.08203e-05
6.3968e-06
2.95729e-05
4.3625e-06
2.57763e-06
6.45785e-05
1.29586e-05
6.48853e-05
1.40361e-05
6.50701e-05
1.51133e-05
6.50796e-05
1.6156e-05
6.48546e-05
1.71219e-05
6.43351e-05
1.79632e-05
6.34684e-05
1.86296e-05
6.22176e-05
1.90738e-05
6.05701e-05
1.92569e-05
5.85426e-05
1.91534e-05
5.61823e-05
1.87535e-05
5.35627e-05
1.80624e-05
5.07771e-05
1.70957e-05
4.79294e-05
1.58717e-05
4.5127e-05
1.44023e-05
4.24768e-05
1.26847e-05
4.00846e-05
1.06986e-05
3.80567e-05
8.42469e-06
3.64953e-05
5.92386e-06
3.64803e-06
7.05199e-05
1.25028e-05
7.09314e-05
1.36245e-05
7.12636e-05
1.4781e-05
7.14724e-05
1.59472e-05
7.15047e-05
1.70896e-05
7.13018e-05
1.81661e-05
7.08036e-05
1.91278e-05
6.99561e-05
1.99214e-05
6.87193e-05
2.04937e-05
6.70761e-05
2.07966e-05
6.50378e-05
2.07917e-05
6.26473e-05
2.04529e-05
5.99767e-05
1.97662e-05
5.71227e-05
1.87257e-05
5.41991e-05
1.73259e-05
5.13307e-05
1.5553e-05
4.86498e-05
1.33794e-05
4.62951e-05
1.07794e-05
4.44061e-05
7.81283e-06
5.01354e-06
7.66578e-05
1.19968e-05
7.7146e-05
1.31363e-05
7.759e-05
1.4337e-05
7.79548e-05
1.55824e-05
7.81964e-05
1.6848e-05
7.82619e-05
1.81006e-05
7.80921e-05
1.92975e-05
7.76263e-05
2.03872e-05
7.68082e-05
2.13118e-05
7.55949e-05
2.201e-05
7.39648e-05
2.24218e-05
7.19254e-05
2.24923e-05
6.9517e-05
2.21746e-05
6.68131e-05
2.14296e-05
6.39173e-05
2.02217e-05
6.09578e-05
1.85125e-05
5.80825e-05
1.62548e-05
5.54559e-05
1.3406e-05
5.32522e-05
1.00166e-05
6.70032e-06
8.29856e-05
1.14635e-05
8.35211e-05
1.26008e-05
8.404e-05
1.38181e-05
8.45159e-05
1.51065e-05
8.49139e-05
1.645e-05
8.519e-05
1.78245e-05
8.52914e-05
1.91961e-05
8.51586e-05
2.052e-05
8.47295e-05
2.17408e-05
8.39462e-05
2.27934e-05
8.27626e-05
2.36054e-05
8.11542e-05
2.41007e-05
7.91258e-05
2.4203e-05
7.67178e-05
2.38376e-05
7.40077e-05
2.29318e-05
7.11098e-05
2.14105e-05
6.81709e-05
1.91937e-05
6.53669e-05
1.621e-05
6.2895e-05
1.24885e-05
8.71379e-06
8.95028e-05
1.09287e-05
9.00539e-05
1.20496e-05
9.06085e-05
1.32635e-05
9.11478e-05
1.45672e-05
9.16457e-05
1.59521e-05
9.20677e-05
1.74025e-05
9.23701e-05
1.88937e-05
9.25003e-05
2.03898e-05
9.23989e-05
2.18423e-05
9.2003e-05
2.31892e-05
9.12535e-05
2.43548e-05
9.01029e-05
2.52513e-05
8.85248e-05
2.5781e-05
8.65237e-05
2.58388e-05
8.41418e-05
2.53137e-05
8.14631e-05
2.40891e-05
7.86141e-05
2.20427e-05
7.57612e-05
1.90628e-05
7.3104e-05
1.51457e-05
1.10308e-05
9.62224e-05
1.04176e-05
9.67574e-05
1.15146e-05
9.7308e-05
1.27129e-05
9.78616e-05
1.40137e-05
9.83998e-05
1.54139e-05
9.88973e-05
1.6905e-05
9.93208e-05
1.84702e-05
9.96276e-05
2.00829e-05
9.97668e-05
2.17032e-05
9.96799e-05
2.32761e-05
9.93053e-05
2.47294e-05
9.85843e-05
2.59724e-05
9.74693e-05
2.68961e-05
9.5934e-05
2.7374e-05
9.39834e-05
2.72643e-05
9.16615e-05
2.6411e-05
8.90564e-05
2.46478e-05
8.6302e-05
2.18172e-05
8.35732e-05
1.78745e-05
1.35959e-05
0.00010318
9.96598e-06
0.000103658
1.10367e-05
0.000104158
1.22131e-05
0.000104672
1.34997e-05
0.000105189
1.48975e-05
0.00010569
1.64033e-05
0.000106153
1.80071e-05
0.000106546
1.96898e-05
0.000106829
2.14203e-05
0.000106953
2.3152e-05
0.000106863
2.48195e-05
0.0001065
2.63356e-05
0.000105807
2.75889e-05
0.000104739
2.84426e-05
0.000103268
2.87352e-05
0.000101397
2.82821e-05
9.91635e-05
2.68808e-05
9.66486e-05
2.43321e-05
9.3974e-05
2.05491e-05
1.63222e-05
0.000110523
9.58574e-06
0.000110925
1.06351e-05
0.000111344
1.17934e-05
0.000111778
1.30663e-05
0.000112218
1.44574e-05
0.000112654
1.59667e-05
0.000113073
1.75884e-05
0.000113454
1.9309e-05
0.00011377
2.11038e-05
0.000113988
2.2934e-05
0.000114066
2.47418e-05
0.000113954
2.64473e-05
0.000113599
2.79438e-05
0.000112947
2.9095e-05
0.000111948
2.97342e-05
0.000110566
2.96646e-05
0.00010878
2.86659e-05
0.000106601
2.6512e-05
0.00010408
2.30695e-05
1.91151e-05
0.000118467
0.000118735
0.000119024
0.000119333
0.00011966
0.00012
0.000120348
0.000120693
0.000121017
0.000121299
0.000121506
0.000121599
0.000121526
0.000121229
0.000120641
0.000119692
0.000118306
0.000116406
0.000113913
)
;

boundaryField
{
    zeroGradPlanes
    {
        type            calculated;
        value           nonuniform List<scalar> 
80
(
-2.36707e-06
-7.54049e-06
-1.1998e-05
-1.57189e-05
-1.8805e-05
-2.13719e-05
-2.35217e-05
-2.53335e-05
-2.68589e-05
-2.81211e-05
-2.91146e-05
-2.98076e-05
-3.01448e-05
-3.00509e-05
-2.94322e-05
-2.81761e-05
-2.61481e-05
-2.31476e-05
-1.87777e-05
-1.25086e-05
3.82764e-07
1.28873e-06
2.44134e-06
3.89427e-06
5.70981e-06
7.95983e-06
1.07256e-05
1.40962e-05
1.81654e-05
2.30257e-05
2.87594e-05
3.54249e-05
4.30406e-05
5.15654e-05
6.08815e-05
7.0787e-05
8.10081e-05
9.12477e-05
0.000101287
0.000110739
1.35166e-06
4.56051e-06
7.51401e-06
1.00391e-05
1.20963e-05
1.3693e-05
1.48595e-05
1.56374e-05
1.60732e-05
1.62156e-05
1.61125e-05
1.58098e-05
1.53504e-05
1.47725e-05
1.41101e-05
1.3392e-05
1.26421e-05
1.188e-05
1.1121e-05
1.0377e-05
9.33564e-06
1.03665e-05
1.15044e-05
1.27576e-05
1.41308e-05
1.56261e-05
1.72405e-05
1.89647e-05
2.07794e-05
2.26523e-05
2.45344e-05
2.63547e-05
2.80163e-05
2.93921e-05
3.0322e-05
3.06143e-05
3.00517e-05
2.84122e-05
2.55623e-05
2.22887e-05
)
;
    }
    inlet
    {
        type            calculated;
        value           nonuniform List<scalar> 
20
(
-1.99006e-05
-2.16598e-05
-2.35745e-05
-2.56584e-05
-2.79266e-05
-3.03953e-05
-3.30822e-05
-3.60066e-05
-3.91895e-05
-4.26538e-05
-4.64243e-05
-5.05282e-05
-5.49948e-05
-5.98562e-05
-6.51474e-05
-7.09063e-05
-7.71743e-05
-8.39964e-05
-9.14216e-05
-9.95031e-05
)
;
    }
    plate
    {
        type            calculated;
        value           uniform 0;
    }
    frontAndBack
    {
        type            empty;
        value           nonuniform 0();
    }
}


// ************************************************************************* //
