/*--------------------------------*- C++ -*----------------------------------*\
| =========                 |                                                 |
| \\      /  F ield         | OpenFOAM: The Open Source CFD Toolbox           |
|  \\    /   O peration     | Version:  v1906                                 |
|   \\  /    A nd           | Web:      www.OpenFOAM.com                      |
|    \\/     M anipulation  |                                                 |
\*---------------------------------------------------------------------------*/
FoamFile
{
    version     2.0;
    format      ascii;
    class       volVectorField;
    location    "0.3";
    object      U;
}
// * * * * * * * * * * * * * * * * * * * * * * * * * * * * * * * * * * * * * //

dimensions      [0 1 -1 0 0 0 0];


internalField   nonuniform List<vector> 
800
(
(0.99785 0.0243219 0)
(0.990623 0.0832011 0)
(0.982746 0.143637 0)
(0.975068 0.204536 0)
(0.967526 0.266119 0)
(0.960175 0.329023 0)
(0.952973 0.394006 0)
(0.945869 0.461769 0)
(0.938793 0.532782 0)
(0.931653 0.607093 0)
(0.924325 0.684114 0)
(0.916635 0.762392 0)
(0.908329 0.839367 0)
(0.899025 0.911105 0)
(0.888232 0.971939 0)
(0.87493 1.01395 0)
(0.855901 1.02637 0)
(0.829099 0.994046 0)
(0.810292 0.889933 0)
(0.784258 0.65981 0)
(0.997943 0.0254417 0)
(0.990856 0.0847652 0)
(0.983034 0.145383 0)
(0.975428 0.206404 0)
(0.967984 0.268104 0)
(0.960762 0.331133 0)
(0.953732 0.396262 0)
(0.946863 0.464201 0)
(0.940114 0.535429 0)
(0.933441 0.610013 0)
(0.926792 0.687389 0)
(0.920112 0.766143 0)
(0.913336 0.843779 0)
(0.906398 0.916464 0)
(0.899312 0.978718 0)
(0.892084 1.02295 0)
(0.883855 1.03911 0)
(0.874874 1.01457 0)
(0.873658 0.929797 0)
(0.865898 0.747186 0)
(0.998122 0.0268724 0)
(0.991331 0.0868207 0)
(0.983654 0.147683 0)
(0.976219 0.208856 0)
(0.968999 0.270695 0)
(0.962072 0.333866 0)
(0.955435 0.39915 0)
(0.949098 0.467258 0)
(0.943088 0.538674 0)
(0.937459 0.61346 0)
(0.932312 0.691048 0)
(0.927816 0.770007 0)
(0.924244 0.847804 0)
(0.922016 0.920538 0)
(0.921771 0.982638 0)
(0.924298 1.02645 0)
(0.929857 1.04202 0)
(0.938174 1.01767 0)
(0.948362 0.939692 0)
(0.944215 0.791559 0)
(0.998354 0.0281979 0)
(0.99201 0.0888105 0)
(0.984611 0.14992 0)
(0.97748 0.211223 0)
(0.970644 0.273162 0)
(0.964209 0.336419 0)
(0.95822 0.401772 0)
(0.952754 0.469918 0)
(0.947934 0.541313 0)
(0.943959 0.615972 0)
(0.941125 0.693248 0)
(0.939869 0.771587 0)
(0.940794 0.848265 0)
(0.944671 0.919119 0)
(0.952376 0.978308 0)
(0.964567 1.01815 0)
(0.980889 1.02942 0)
(0.999199 1.00279 0)
(1.01427 0.931037 0)
(1.01344 0.812692 0)
(0.99861 0.0294389 0)
(0.99285 0.0907745 0)
(0.9859 0.152143 0)
(0.979241 0.213553 0)
(0.972979 0.275541 0)
(0.967266 0.338802 0)
(0.962211 0.404097 0)
(0.957979 0.472083 0)
(0.954813 0.543151 0)
(0.953071 0.61721 0)
(0.953248 0.693462 0)
(0.955995 0.770139 0)
(0.962102 0.844253 0)
(0.972394 0.911401 0)
(0.987488 0.965703 0)
(1.00731 1.00007 0)
(1.03037 1.00709 0)
(1.05317 0.980844 0)
(1.06981 0.919272 0)
(1.072 0.826742 0)
(0.998871 0.0306135 0)
(0.993817 0.0927362 0)
(0.98751 0.154378 0)
(0.981523 0.215862 0)
(0.976056 0.277826 0)
(0.97132 0.340974 0)
(0.967504 0.406029 0)
(0.964871 0.473578 0)
(0.963791 0.543899 0)
(0.964764 0.616748 0)
(0.968429 0.691115 0)
(0.975539 0.764995 0)
(0.98686 0.835191 0)
(1.00297 0.897262 0)
(1.02392 0.945728 0)
(1.04879 0.974684 0)
(1.07523 0.978942 0)
(1.09936 0.955616 0)
(1.11623 0.905599 0)
(1.12091 0.834385 0)
(0.999124 0.0316867 0)
(0.994875 0.094626 0)
(0.989418 0.156535 0)
(0.984327 0.21804 0)
(0.979896 0.279875 0)
(0.976408 0.342742 0)
(0.974134 0.407305 0)
(0.973436 0.474046 0)
(0.974787 0.543093 0)
(0.978787 0.614008 0)
(0.986127 0.685564 0)
(0.99751 0.755565 0)
(1.01349 0.82076 0)
(1.03421 0.876967 0)
(1.05911 0.919491 0)
(1.08662 0.943887 0)
(1.11407 0.947005 0)
(1.13799 0.928044 0)
(1.15476 0.889146 0)
(1.16164 0.835228 0)
(0.999357 0.0326156 0)
(0.995993 0.0963437 0)
(0.991589 0.15848 0)
(0.987627 0.219923 0)
(0.984487 0.281484 0)
(0.982512 0.34385 0)
(0.982057 0.4076 0)
(0.983558 0.473085 0)
(0.987556 0.540257 0)
(0.994676 0.60848 0)
(1.00556 0.676352 0)
(1.02072 0.741599 0)
(1.04039 0.801127 0)
(1.06426 0.851279 0)
(1.09127 0.888357 0)
(1.11957 0.909342 0)
(1.14664 0.912643 0)
(1.1697 0.898634 0)
(1.18635 0.869695 0)
(1.19513 0.82972 0)
(0.999566 0.033363 0)
(0.997139 0.0977814 0)
(0.993976 0.16006 0)
(0.991374 0.22132 0)
(0.989767 0.28242 0)
(0.989548 0.344015 0)
(0.991129 0.40658 0)
(0.994991 0.470315 0)
(1.00168 0.534997 0)
(1.01178 0.599823 0)
(1.02578 0.663301 0)
(1.04394 0.723234 0)
(1.06615 0.776871 0)
(1.09172 0.821249 0)
(1.11935 0.853688 0)
(1.1472 0.872348 0)
(1.17314 0.876673 0)
(1.19513 0.867554 0)
(1.21165 0.84714 0)
(1.22193 0.818356 0)
(0.999752 0.0338956 0)
(0.99829 0.0988227 0)
(0.996523 0.161102 0)
(0.995488 0.22201 0)
(0.995627 0.282422 0)
(0.997355 0.342937 0)
(1.00111 0.403915 0)
(1.00736 0.465404 0)
(1.01662 0.527029 0)
(1.02935 0.587888 0)
(1.04583 0.646505 0)
(1.06607 0.700901 0)
(1.08965 0.7488 0)
(1.11569 0.787972 0)
(1.14285 0.816632 0)
(1.16948 0.833808 0)
(1.19393 0.839537 0)
(1.21477 0.834843 0)
(1.23106 0.821494 0)
(1.24242 0.80164 0)
(0.999914 0.0341812 0)
(0.999424 0.0993422 0)
(0.999167 0.16141 0)
(0.999862 0.221748 0)
(1.00191 0.281209 0)
(1.0057 0.340314 0)
(1.01165 0.399305 0)
(1.02019 0.458097 0)
(1.03173 0.516213 0)
(1.04657 0.572727 0)
(1.06479 0.626286 0)
(1.08616 0.67523 0)
(1.11011 0.717806 0)
(1.13566 0.752458 0)
(1.16159 0.778109 0)
(1.18657 0.794357 0)
(1.20935 0.801534 0)
(1.22899 0.800605 0)
(1.2449 0.792961 0)
(1.2569 0.780168 0)
(1.00006 0.0341883 0)
(1.00052 0.0992108 0)
(1.00184 0.160781 0)
(1.00437 0.220279 0)
(1.00841 0.278496 0)
(1.01428 0.335863 0)
(1.02235 0.39251 0)
(1.03294 0.448251 0)
(1.04635 0.502561 0)
(1.06269 0.554573 0)
(1.08188 0.603137 0)
(1.10355 0.646954 0)
(1.12702 0.684772 0)
(1.15139 0.715595 0)
(1.17563 0.738853 0)
(1.19871 0.754493 0)
(1.21974 0.762958 0)
(1.2381 0.765079 0)
(1.25343 0.761926 0)
(1.26564 0.754644 0)
(1.00019 0.0338861 0)
(1.00157 0.0982998 0)
(1.00448 0.15901 0)
(1.00888 0.217351 0)
(1.01491 0.274022 0)
(1.0228 0.329353 0)
(1.03278 0.383375 0)
(1.04509 0.435841 0)
(1.05987 0.486237 0)
(1.07709 0.53381 0)
(1.09654 0.577655 0)
(1.11778 0.616832 0)
(1.14016 0.650519 0)
(1.16289 0.678146 0)
(1.18516 0.699485 0)
(1.20621 0.714671 0)
(1.22542 0.724162 0)
(1.2424 0.728646 0)
(1.25692 0.728937 0)
(1.26896 0.725879 0)
(1.0003 0.033243 0)
(1.00258 0.0964831 0)
(1.00704 0.155902 0)
(1.01328 0.212736 0)
(1.02123 0.267568 0)
(1.03095 0.32062 0)
(1.04257 0.371845 0)
(1.05618 0.420968 0)
(1.0718 0.467527 0)
(1.0893 0.510921 0)
(1.10841 0.550488 0)
(1.12866 0.585608 0)
(1.1495 0.615796 0)
(1.1703 0.640787 0)
(1.19043 0.660564 0)
(1.20938 0.675356 0)
(1.22672 0.68559 0)
(1.2422 0.691825 0)
(1.2557 0.694685 0)
(1.26722 0.694795 0)
(1.00042 0.0322219 0)
(1.00354 0.0936326 0)
(1.0095 0.151269 0)
(1.01751 0.206231 0)
(1.02721 0.258966 0)
(1.03852 0.309582 0)
(1.05143 0.357966 0)
(1.06591 0.403842 0)
(1.08186 0.446819 0)
(1.09912 0.486451 0)
(1.11737 0.522296 0)
(1.13623 0.553989 0)
(1.15523 0.581294 0)
(1.17391 0.604146 0)
(1.19182 0.622654 0)
(1.20861 0.637082 0)
(1.22402 0.647812 0)
(1.23789 0.655298 0)
(1.25015 0.660021 0)
(1.26084 0.662455 0)
(1.00054 0.0307748 0)
(1.0045 0.0896109 0)
(1.01192 0.144929 0)
(1.02158 0.197664 0)
(1.03284 0.248103 0)
(1.04545 0.29623 0)
(1.05928 0.341872 0)
(1.07418 0.384755 0)
(1.09002 0.424562 0)
(1.10658 0.460979 0)
(1.1236 0.493737 0)
(1.14076 0.522655 0)
(1.15773 0.547668 0)
(1.17417 0.568834 0)
(1.1898 0.586329 0)
(1.2044 0.600424 0)
(1.21781 0.611457 0)
(1.22994 0.619801 0)
(1.24078 0.625838 0)
(1.25036 0.629937 0)
(1.00069 0.028835 0)
(1.00556 0.0842747 0)
(1.01443 0.136735 0)
(1.02562 0.186934 0)
(1.03823 0.23496 0)
(1.05186 0.280659 0)
(1.06624 0.323786 0)
(1.08118 0.364068 0)
(1.09651 0.401242 0)
(1.11202 0.43509 0)
(1.12751 0.465465 0)
(1.14275 0.492307 0)
(1.15753 0.51565 0)
(1.17165 0.53562 0)
(1.18494 0.552419 0)
(1.19729 0.566307 0)
(1.20862 0.577582 0)
(1.2189 0.586556 0)
(1.22815 0.593539 0)
(1.23639 0.59883 0)
(1.00093 0.0262287 0)
(1.00691 0.0773528 0)
(1.01726 0.126484 0)
(1.02989 0.173978 0)
(1.04362 0.219644 0)
(1.05796 0.26315 0)
(1.07258 0.304156 0)
(1.08724 0.342357 0)
(1.10177 0.377512 0)
(1.11602 0.409455 0)
(1.12982 0.438108 0)
(1.14307 0.463481 0)
(1.15563 0.485665 0)
(1.16741 0.504821 0)
(1.17834 0.52116 0)
(1.1884 0.534931 0)
(1.19756 0.546402 0)
(1.20585 0.555844 0)
(1.21329 0.56352 0)
(1.21993 0.56968 0)
(1.00141 0.0222133 0)
(1.00889 0.067642 0)
(1.02076 0.112903 0)
(1.03464 0.157601 0)
(1.04924 0.201135 0)
(1.06399 0.242946 0)
(1.07853 0.282568 0)
(1.09263 0.319626 0)
(1.1061 0.353844 0)
(1.11886 0.385042 0)
(1.13082 0.413137 0)
(1.14196 0.438139 0)
(1.15225 0.460136 0)
(1.16169 0.47928 0)
(1.17032 0.495772 0)
(1.17815 0.509841 0)
(1.18522 0.521734 0)
(1.19159 0.531698 0)
(1.1973 0.539974 0)
(1.20241 0.546786 0)
(1.00205 0.0156111 0)
(1.01118 0.0539254 0)
(1.02438 0.0947669 0)
(1.03927 0.136342 0)
(1.0546 0.177515 0)
(1.06977 0.2175 0)
(1.0844 0.255726 0)
(1.09822 0.291766 0)
(1.11103 0.325308 0)
(1.12275 0.356147 0)
(1.13333 0.384171 0)
(1.14278 0.409354 0)
(1.15115 0.431749 0)
(1.15852 0.451468 0)
(1.16496 0.46867 0)
(1.17059 0.483549 0)
(1.17548 0.496314 0)
(1.17973 0.507184 0)
(1.18341 0.516377 0)
(1.18661 0.524099 0)
(0.440727 0.247819 0)
(0.263021 0.0930396 0)
(0.157065 0.0334486 0)
(0.10537 0.0121814 0)
(0.0794458 0.00485901 0)
(0.0641809 0.00233509 0)
(0.0539733 0.0013883 0)
(0.0465407 0.000951638 0)
(0.0408066 0.000698037 0)
(0.0362233 0.00052791 0)
(0.0324758 0.000405594 0)
(0.0293643 0.000314155 0)
(0.0267578 0.000243579 0)
(0.0245719 0.000187238 0)
(0.0227566 0.000140454 0)
(0.0212927 9.97101e-05 0)
(0.020181 6.28428e-05 0)
(0.0194702 2.77906e-05 0)
(0.0191191 2.55331e-06 0)
(0.0192151 -1.40983e-05 0)
(0.743304 0.457121 0)
(0.588756 0.248724 0)
(0.444504 0.126916 0)
(0.338912 0.0650013 0)
(0.266509 0.0349345 0)
(0.216297 0.0202769 0)
(0.180522 0.0127742 0)
(0.154133 0.00860057 0)
(0.133941 0.0060691 0)
(0.118006 0.00442323 0)
(0.105129 0.00329606 0)
(0.0945418 0.0024917 0)
(0.0857431 0.00189637 0)
(0.0784058 0.00143937 0)
(0.072329 0.00107421 0)
(0.0674155 0.000768905 0)
(0.0636397 0.00050247 0)
(0.0611015 0.000263575 0)
(0.0596969 8.01035e-05 0)
(0.0596162 -2.27796e-05 0)
(0.886327 0.587082 0)
(0.787305 0.403276 0)
(0.666984 0.260615 0)
(0.553357 0.163894 0)
(0.458075 0.102908 0)
(0.382271 0.0658941 0)
(0.323233 0.043581 0)
(0.277287 0.029856 0)
(0.241103 0.0211164 0)
(0.212141 0.0153337 0)
(0.188586 0.0113635 0)
(0.169176 0.00854239 0)
(0.153035 0.00647026 0)
(0.139574 0.00489535 0)
(0.128415 0.0036522 0)
(0.119354 0.00262842 0)
(0.112321 0.00174878 0)
(0.107434 0.000978929 0)
(0.104539 0.000371467 0)
(0.103891 4.30733e-05 0)
(0.981286 0.666959 0)
(0.919252 0.521161 0)
(0.830741 0.385878 0)
(0.73149 0.275165 0)
(0.634656 0.192037 0)
(0.547633 0.133214 0)
(0.473175 0.0930094 0)
(0.411121 0.0658682 0)
(0.359923 0.047469 0)
(0.317692 0.034811 0)
(0.282695 0.0259201 0)
(0.25352 0.0195239 0)
(0.229086 0.0147993 0)
(0.208609 0.0112053 0)
(0.191558 0.00837646 0)
(0.177631 0.0060614 0)
(0.166703 0.00408918 0)
(0.158897 0.00238239 0)
(0.154024 0.00101721 0)
(0.152385 0.000262627 0)
(1.05344 0.718768 0)
(1.01442 0.605109 0)
(0.952647 0.487987 0)
(0.874384 0.379469 0)
(0.788337 0.287018 0)
(0.702323 0.213245 0)
(0.62179 0.157125 0)
(0.549619 0.115732 0)
(0.486676 0.0856829 0)
(0.43261 0.0639522 0)
(0.386502 0.0481517 0)
(0.347294 0.0365213 0)
(0.314003 0.0278069 0)
(0.285826 0.0211253 0)
(0.262176 0.0158517 0)
(0.242693 0.0115424 0)
(0.227223 0.00788885 0)
(0.215896 0.00474467 0)
(0.208515 0.00220569 0)
(0.205434 0.000740457 0)
(1.11097 0.753001 0)
(1.08694 0.664863 0)
(1.04538 0.567919 0)
(0.987457 0.470017 0)
(0.917252 0.378305 0)
(0.840281 0.297739 0)
(0.761943 0.2306 0)
(0.686489 0.176876 0)
(0.61664 0.135097 0)
(0.553733 0.103169 0)
(0.498102 0.0789506 0)
(0.449491 0.0605615 0)
(0.407378 0.0464792 0)
(0.371192 0.0355259 0)
(0.340449 0.0268098 0)
(0.314833 0.0196656 0)
(0.294217 0.0136152 0)
(0.27877 0.00841658 0)
(0.268327 0.00418056 0)
(0.263328 0.0016146 0)
(1.15782 0.773898 0)
(1.14403 0.706089 0)
(1.11728 0.628105 0)
(1.07652 0.544291 0)
(1.02277 0.459846 0)
(0.958836 0.379672 0)
(0.888594 0.30746 0)
(0.816064 0.245261 0)
(0.744705 0.193573 0)
(0.677044 0.151748 0)
(0.614642 0.118493 0)
(0.558264 0.0922834 0)
(0.508131 0.0716348 0)
(0.464167 0.0552413 0)
(0.426196 0.0420163 0)
(0.39409 0.0310914 0)
(0.367845 0.021811 0)
(0.347732 0.0138205 0)
(0.333677 0.00724294 0)
(0.326273 0.00306525 0)
(1.19583 0.783951 0)
(1.18933 0.73239 0)
(1.17341 0.671068 0)
(1.14635 0.602 0)
(1.10752 0.528336 0)
(1.05767 0.453822 0)
(0.998839 0.382108 0)
(0.9339 0.316132 0)
(0.866009 0.257768 0)
(0.798089 0.20778 0)
(0.732496 0.166009 0)
(0.670913 0.131683 0)
(0.614404 0.103712 0)
(0.56357 0.0809157 0)
(0.518736 0.0621705 0)
(0.480125 0.0464864 0)
(0.447985 0.0330634 0)
(0.422786 0.0214383 0)
(0.404618 0.011752 0)
(0.394333 0.00532219 0)
(1.22598 0.784841 0)
(1.22474 0.746326 0)
(1.2168 0.699197 0)
(1.20039 0.644075 0)
(1.17419 0.582518 0)
(1.1377 0.516892 0)
(1.09146 0.450041 0)
(1.03695 0.384828 0)
(0.976421 0.323697 0)
(0.91244 0.268368 0)
(0.847556 0.219739 0)
(0.783998 0.177952 0)
(0.723533 0.14258 0)
(0.667469 0.112841 0)
(0.616746 0.0877848 0)
(0.572083 0.0664438 0)
(0.534115 0.0479564 0)
(0.503623 0.0317885 0)
(0.480951 0.018119 0)
(0.467352 0.00867029 0)
(1.24888 0.777827 0)
(1.25145 0.7498 0)
(1.24936 0.71454 0)
(1.24107 0.671905 0)
(1.2251 0.622386 0)
(1.20036 0.567173 0)
(1.16638 0.508085 0)
(1.12348 0.447353 0)
(1.0728 0.387302 0)
(1.01612 0.330014 0)
(0.955612 0.277071 0)
(0.893566 0.229423 0)
(0.832123 0.187395 0)
(0.773141 0.150787 0)
(0.718161 0.119035 0)
(0.668461 0.09137 0)
(0.625171 0.0669954 0)
(0.589493 0.0453822 0)
(0.562115 0.0267895 0)
(0.544865 0.0134502 0)
(1.265 0.764019 0)
(1.27024 0.744382 0)
(1.27237 0.718893 0)
(1.27013 0.687041 0)
(1.26216 0.648678 0)
(1.24719 0.60415 0)
(1.22424 0.554351 0)
(1.19282 0.500694 0)
(1.15309 0.444962 0)
(1.10591 0.389075 0)
(1.05275 0.334827 0)
(0.995492 0.283664 0)
(0.936256 0.236537 0)
(0.877142 0.19387 0)
(0.820126 0.155609 0)
(0.767 0.121348 0)
(0.719418 0.0905021 0)
(0.679074 0.0626538 0)
(0.647063 0.0382088 0)
(0.625984 0.0200507 0)
(1.27473 0.744493 0)
(1.28173 0.731501 0)
(1.28677 0.713924 0)
(1.2889 0.691117 0)
(1.28696 0.662602 0)
(1.27974 0.628193 0)
(1.2661 0.588091 0)
(1.2451 0.542947 0)
(1.21624 0.49385 0)
(1.17955 0.442228 0)
(1.13568 0.389672 0)
(1.08586 0.337731 0)
(1.0318 0.287703 0)
(0.975501 0.240501 0)
(0.919076 0.196585 0)
(0.864661 0.155998 0)
(0.814359 0.118489 0)
(0.770346 0.0838663 0)
(0.734138 0.0527651 0)
(0.709295 0.0288865 0)
(1.27849 0.720357 0)
(1.28649 0.71255 0)
(1.29339 0.701262 0)
(1.29848 0.685844 0)
(1.30085 0.665692 0)
(1.29948 0.640332 0)
(1.29325 0.609518 0)
(1.28109 0.573313 0)
(1.26212 0.532156 0)
(1.23578 0.486861 0)
(1.20203 0.438554 0)
(1.16136 0.38854 0)
(1.11484 0.338133 0)
(1.06404 0.288476 0)
(1.01094 0.240404 0)
(0.957711 0.194378 0)
(0.906726 0.150538 0)
(0.860529 0.109 0)
(0.820985 0.0707114 0)
(0.792768 0.0403583 0)
(1.2767 0.692777 0)
(1.28509 0.68894 0)
(1.29298 0.682547 0)
(1.29987 0.67301 0)
(1.30509 0.659718 0)
(1.30783 0.642086 0)
(1.30712 0.61962 0)
(1.30195 0.592002 0)
(1.2913 0.559162 0)
(1.27433 0.521342 0)
(1.25045 0.479106 0)
(1.21955 0.433306 0)
(1.18202 0.384979 0)
(1.13883 0.335206 0)
(1.09149 0.284956 0)
(1.04196 0.234967 0)
(0.992612 0.185715 0)
(0.946122 0.137649 0)
(0.904538 0.0920712 0)
(0.873726 0.0547916 0)
(1.26987 0.663035 0)
(1.27814 0.662172 0)
(1.28631 0.659498 0)
(1.29404 0.654516 0)
(1.30087 0.646669 0)
(1.30619 0.635366 0)
(1.30924 0.62002 0)
(1.30915 0.600103 0)
(1.30498 0.575212 0)
(1.29575 0.545143 0)
(1.28066 0.509945 0)
(1.25913 0.469946 0)
(1.23099 0.425733 0)
(1.19658 0.37808 0)
(1.15682 0.32783 0)
(1.11321 0.275772 0)
(1.06779 0.222574 0)
(1.02311 0.168952 0)
(0.981147 0.116551 0)
(0.948935 0.0723621 0)
(1.2586 0.632398 0)
(1.2663 0.633716 0)
(1.27415 0.633806 0)
(1.28194 0.632263 0)
(1.28934 0.628611 0)
(1.29594 0.62231 0)
(1.30118 0.612769 0)
(1.30437 0.599381 0)
(1.30472 0.581564 0)
(1.30134 0.558822 0)
(1.29335 0.530809 0)
(1.27996 0.49738 0)
(1.26063 0.45863 0)
(1.23517 0.414888 0)
(1.20392 0.366667 0)
(1.16776 0.31458 0)
(1.12823 0.259281 0)
(1.08742 0.20161 0)
(1.04692 0.143475 0)
(1.01486 0.0929958 0)
(1.24357 0.602639 0)
(1.25038 0.605521 0)
(1.25745 0.607604 0)
(1.26466 0.608568 0)
(1.27179 0.60802 0)
(1.27859 0.605492 0)
(1.28465 0.600443 0)
(1.2895 0.592269 0)
(1.29252 0.580326 0)
(1.29299 0.563966 0)
(1.29012 0.542588 0)
(1.2831 0.515693 0)
(1.27121 0.482945 0)
(1.25396 0.444208 0)
(1.23118 0.399558 0)
(1.20317 0.349269 0)
(1.17083 0.293794 0)
(1.13557 0.233921 0)
(1.09833 0.171687 0)
(1.06816 0.116179 0)
(1.22575 0.574474 0)
(1.2313 0.578504 0)
(1.23714 0.582058 0)
(1.24321 0.584878 0)
(1.24938 0.58664 0)
(1.2555 0.586944 0)
(1.26131 0.585308 0)
(1.2665 0.581165 0)
(1.27062 0.57387 0)
(1.27316 0.562718 0)
(1.27348 0.546972 0)
(1.27088 0.525914 0)
(1.26467 0.498897 0)
(1.25419 0.465406 0)
(1.23901 0.425113 0)
(1.21894 0.377909 0)
(1.19427 0.323953 0)
(1.16559 0.263847 0)
(1.13302 0.199589 0)
(1.10641 0.140978 0)
(1.20689 0.552256 0)
(1.21118 0.557027 0)
(1.21569 0.561488 0)
(1.22037 0.565429 0)
(1.22517 0.568579 0)
(1.23 0.570596 0)
(1.23472 0.571062 0)
(1.23915 0.569472 0)
(1.24303 0.565229 0)
(1.24603 0.557654 0)
(1.24775 0.545994 0)
(1.24766 0.529455 0)
(1.2452 0.507241 0)
(1.23976 0.478615 0)
(1.23076 0.442957 0)
(1.21771 0.399839 0)
(1.20033 0.349109 0)
(1.17837 0.291076 0)
(1.15112 0.227462 0)
(1.12913 0.168445 0)
(1.18935 0.530442 0)
(1.19195 0.536119 0)
(1.19475 0.541632 0)
(1.19776 0.5468 0)
(1.20097 0.551392 0)
(1.20434 0.555116 0)
(1.20782 0.557608 0)
(1.21134 0.558421 0)
(1.21474 0.557019 0)
(1.21785 0.552768 0)
(1.22038 0.54494 0)
(1.22198 0.532723 0)
(1.22218 0.51525 0)
(1.22043 0.491638 0)
(1.21609 0.461053 0)
(1.20845 0.422796 0)
(1.19679 0.376412 0)
(1.18004 0.321934 0)
(1.15696 0.260945 0)
(1.13884 0.203732 0)
)
;

boundaryField
{
    zeroGradPlanes
    {
        type            zeroGradient;
    }
    inlet
    {
        type            fixedValue;
        value           uniform (1 0 0);
    }
    plate
    {
        type            noSlip;
    }
    frontAndBack
    {
        type            empty;
    }
}


// ************************************************************************* //
