/*--------------------------------*- C++ -*----------------------------------*\
| =========                 |                                                 |
| \\      /  F ield         | OpenFOAM: The Open Source CFD Toolbox           |
|  \\    /   O peration     | Version:  v1906                                 |
|   \\  /    A nd           | Web:      www.OpenFOAM.com                      |
|    \\/     M anipulation  |                                                 |
\*---------------------------------------------------------------------------*/
FoamFile
{
    version     2.0;
    format      ascii;
    class       volScalarField;
    location    "0.3";
    object      p;
}
// * * * * * * * * * * * * * * * * * * * * * * * * * * * * * * * * * * * * * //

dimensions      [0 2 -2 0 0 0 0];


internalField   nonuniform List<scalar> 
400
(
-7.9208e-13
-9.61859e-07
-2.52476e-06
-4.2194e-06
-6.0065e-06
-7.8923e-06
-9.86272e-06
-1.19003e-05
-1.39921e-05
-1.61314e-05
-1.83168e-05
-2.05496e-05
-2.28322e-05
-2.51657e-05
-2.75449e-05
-2.99515e-05
-3.23511e-05
-3.47328e-05
-3.71127e-05
-3.87786e-05
-3.27661e-07
-1.31004e-06
-2.91447e-06
-4.5872e-06
-6.32314e-06
-8.1507e-06
-1.00598e-05
-1.20327e-05
-1.40593e-05
-1.61345e-05
-1.82564e-05
-2.04254e-05
-2.26433e-05
-2.49101e-05
-2.72188e-05
-2.95516e-05
-3.18734e-05
-3.41942e-05
-3.66089e-05
-3.83843e-05
-5.70842e-07
-1.48192e-06
-3.10338e-06
-4.77934e-06
-6.48778e-06
-8.28108e-06
-1.01526e-05
-1.20845e-05
-1.40674e-05
-1.6097e-05
-1.81721e-05
-2.02933e-05
-2.24628e-05
-2.46802e-05
-2.69382e-05
-2.92194e-05
-3.14917e-05
-3.37856e-05
-3.62525e-05
-3.81136e-05
-7.95667e-07
-1.57094e-06
-3.18819e-06
-4.86855e-06
-6.55822e-06
-8.32676e-06
-1.01724e-05
-1.20762e-05
-1.40288e-05
-1.60254e-05
-1.80643e-05
-2.01462e-05
-2.22747e-05
-2.44512e-05
-2.66693e-05
-2.89119e-05
-3.11491e-05
-3.3425e-05
-3.59144e-05
-3.77856e-05
-9.98402e-07
-1.62177e-06
-3.21695e-06
-4.89966e-06
-6.57237e-06
-8.31913e-06
-1.01444e-05
-1.20269e-05
-1.39567e-05
-1.59284e-05
-1.79387e-05
-1.99872e-05
-2.20769e-05
-2.42104e-05
-2.63853e-05
-2.85886e-05
-3.0792e-05
-3.30434e-05
-3.5524e-05
-3.73692e-05
-1.14818e-06
-1.6244e-06
-3.19292e-06
-4.87653e-06
-6.53501e-06
-8.26463e-06
-1.00746e-05
-1.19414e-05
-1.38541e-05
-1.58064e-05
-1.77939e-05
-1.98148e-05
-2.18693e-05
-2.39588e-05
-2.60848e-05
-2.82413e-05
-3.04045e-05
-3.26234e-05
-3.50759e-05
-3.68804e-05
-1.21939e-06
-1.57088e-06
-3.11724e-06
-4.80241e-06
-6.45038e-06
-8.16769e-06
-9.96687e-06
-1.1823e-05
-1.37235e-05
-1.56601e-05
-1.76268e-05
-1.96211e-05
-2.16425e-05
-2.36906e-05
-2.57676e-05
-2.78733e-05
-2.99903e-05
-3.21686e-05
-3.45812e-05
-3.63491e-05
-1.19918e-06
-1.4602e-06
-2.99521e-06
-4.68557e-06
-6.3275e-06
-8.03588e-06
-9.82746e-06
-1.16767e-05
-1.35687e-05
-1.54921e-05
-1.74387e-05
-1.94053e-05
-2.13922e-05
-2.34004e-05
-2.54327e-05
-2.74904e-05
-2.95599e-05
-3.16909e-05
-3.4056e-05
-3.58003e-05
-1.07807e-06
-1.29011e-06
-2.8298e-06
-4.53107e-06
-6.17273e-06
-7.87693e-06
-9.66441e-06
-1.15088e-05
-1.33931e-05
-1.53042e-05
-1.7232e-05
-1.9172e-05
-2.11249e-05
-2.30947e-05
-2.50863e-05
-2.71009e-05
-2.91245e-05
-3.12036e-05
-3.35157e-05
-3.52536e-05
-8.49467e-07
-1.05632e-06
-2.61957e-06
-4.33891e-06
-5.98817e-06
-7.69618e-06
-9.48486e-06
-1.13257e-05
-1.32005e-05
-1.50969e-05
-1.70061e-05
-1.89229e-05
-2.08468e-05
-2.27822e-05
-2.4736e-05
-2.67098e-05
-2.86876e-05
-3.07107e-05
-3.29671e-05
-3.472e-05
-5.09115e-07
-7.55427e-07
-2.36146e-06
-4.10783e-06
-5.77458e-06
-7.49541e-06
-9.29041e-06
-1.11284e-05
-1.29915e-05
-1.48706e-05
-1.67609e-05
-1.86584e-05
-2.05599e-05
-2.24668e-05
-2.43852e-05
-2.63173e-05
-2.82475e-05
-3.02122e-05
-3.24136e-05
-3.42076e-05
-5.66626e-08
-3.85867e-07
-2.05433e-06
-3.83811e-06
-5.53249e-06
-7.2728e-06
-9.07622e-06
-1.0911e-05
-1.27622e-05
-1.46256e-05
-1.65002e-05
-1.83826e-05
-2.02669e-05
-2.21495e-05
-2.40338e-05
-2.59235e-05
-2.78062e-05
-2.97142e-05
-3.18648e-05
-3.37266e-05
4.98714e-07
4.89781e-08
-1.70022e-06
-3.53043e-06
-5.26065e-06
-7.02418e-06
-8.83596e-06
-1.06676e-05
-1.25107e-05
-1.43657e-05
-1.62322e-05
-1.81045e-05
-1.9973e-05
-2.18313e-05
-2.36819e-05
-2.55319e-05
-2.73723e-05
-2.92291e-05
-3.13351e-05
-3.32878e-05
1.13293e-06
5.32515e-07
-1.30928e-06
-3.18917e-06
-4.95885e-06
-6.74723e-06
-8.5686e-06
-1.04009e-05
-1.22435e-05
-1.41001e-05
-1.59669e-05
-1.78318e-05
-1.96828e-05
-2.15152e-05
-2.33354e-05
-2.51534e-05
-2.696e-05
-2.87704e-05
-3.0836e-05
-3.2902e-05
1.80561e-06
1.03288e-06
-9.02624e-07
-2.82545e-06
-4.63054e-06
-6.44314e-06
-8.27835e-06
-1.01206e-05
-1.19734e-05
-1.38394e-05
-1.57091e-05
-1.75657e-05
-1.93987e-05
-2.12097e-05
-2.30092e-05
-2.48055e-05
-2.65842e-05
-2.83492e-05
-3.03777e-05
-3.25806e-05
2.46599e-06
1.51378e-06
-5.02991e-07
-2.4514e-06
-4.28039e-06
-6.11478e-06
-7.97019e-06
-9.83462e-06
-1.1708e-05
-1.35866e-05
-1.54566e-05
-1.73042e-05
-1.91261e-05
-2.09288e-05
-2.27195e-05
-2.45001e-05
-2.62531e-05
-2.79761e-05
-2.99721e-05
-3.23277e-05
3.05926e-06
1.94482e-06
-1.2472e-07
-2.07528e-06
-3.91571e-06
-5.77084e-06
-7.6538e-06
-9.54895e-06
-1.14466e-05
-1.33361e-05
-1.52066e-05
-1.70531e-05
-1.8878e-05
-2.06849e-05
-2.24744e-05
-2.42432e-05
-2.5975e-05
-2.76631e-05
-2.96318e-05
-3.21476e-05
3.55369e-06
2.32076e-06
2.43746e-07
-1.68971e-06
-3.53974e-06
-5.42101e-06
-7.33644e-06
-9.26243e-06
-1.11818e-05
-1.30834e-05
-1.49635e-05
-1.68236e-05
-1.86642e-05
-2.04819e-05
-2.22757e-05
-2.40433e-05
-2.5763e-05
-2.74198e-05
-2.93664e-05
-3.20309e-05
3.94756e-06
2.69292e-06
6.65539e-07
-1.25232e-06
-3.12622e-06
-5.04444e-06
-6.99603e-06
-8.95235e-06
-1.08964e-05
-1.28215e-05
-1.47271e-05
-1.66148e-05
-1.84822e-05
-2.0321e-05
-2.21266e-05
-2.39022e-05
-2.5629e-05
-2.72799e-05
-2.92227e-05
-3.20522e-05
4.37073e-06
3.15983e-06
1.21313e-06
-7.10282e-07
-2.62896e-06
-4.595e-06
-6.58963e-06
-8.58455e-06
-1.0566e-05
-1.25324e-05
-1.44846e-05
-1.64174e-05
-1.83208e-05
-2.0191e-05
-2.20315e-05
-2.38391e-05
-2.55884e-05
-2.72559e-05
-2.92534e-05
-3.23794e-05
)
;

boundaryField
{
    movingWall
    {
        type            zeroGradient;
    }
    bottomWall
    {
        type            zeroGradient;
    }
    leftSide
    {
        type            zeroGradient;
    }
    rightSide
    {
        type            zeroGradient;
    }
    frontAndBack
    {
        type            empty;
    }
}


// ************************************************************************* //
