/*--------------------------------*- C++ -*----------------------------------*\
| =========                 |                                                 |
| \\      /  F ield         | OpenFOAM: The Open Source CFD Toolbox           |
|  \\    /   O peration     | Version:  v1906                                 |
|   \\  /    A nd           | Web:      www.OpenFOAM.com                      |
|    \\/     M anipulation  |                                                 |
\*---------------------------------------------------------------------------*/
FoamFile
{
    version     2.0;
    format      ascii;
    class       surfaceScalarField;
    location    "0.3";
    object      phi;
}
// * * * * * * * * * * * * * * * * * * * * * * * * * * * * * * * * * * * * * //

dimensions      [0 3 -1 0 0 0 0];
oriented        oriented;


internalField   nonuniform List<scalar> 
760
(
1.10996e-06
-7.39997e-12
1.10997e-06
-7.17707e-12
1.10997e-06
-6.00349e-12
1.10998e-06
-5.16527e-12
1.10998e-06
-4.38196e-12
1.10999e-06
-3.60176e-12
1.10999e-06
-2.79427e-12
1.10999e-06
-2.00547e-12
1.10999e-06
-1.2542e-12
1.10999e-06
-5.44743e-13
1.10999e-06
1.31878e-13
1.10999e-06
7.92962e-13
1.10999e-06
1.46808e-12
1.10999e-06
2.1878e-12
1.10999e-06
2.98224e-12
1.10998e-06
3.88522e-12
1.10998e-06
4.94347e-12
1.10997e-06
6.40941e-12
1.10996e-06
9.2267e-12
1.1737e-11
3.33329e-06
-1.7081e-11
3.3333e-06
-1.72706e-11
3.33331e-06
-1.56228e-11
3.33332e-06
-1.39003e-11
3.33333e-06
-1.20127e-11
3.33334e-06
-9.9812e-12
3.33334e-06
-7.83271e-12
3.33335e-06
-5.66615e-12
3.33335e-06
-3.54506e-12
3.33335e-06
-1.48964e-12
3.33335e-06
5.21459e-13
3.33335e-06
2.5335e-12
3.33334e-06
4.60791e-12
3.33334e-06
6.81627e-12
3.33333e-06
9.23059e-12
3.33332e-06
1.19168e-11
3.33331e-06
1.49479e-11
3.3333e-06
1.85202e-11
3.33329e-06
2.38623e-11
2.79977e-11
5.56685e-06
-2.44226e-11
5.56686e-06
-2.50365e-11
5.56686e-06
-2.34495e-11
5.56687e-06
-2.13592e-11
5.56688e-06
-1.87355e-11
5.56688e-06
-1.57238e-11
5.56689e-06
-1.24367e-11
5.56689e-06
-9.02745e-12
5.56689e-06
-5.60492e-12
5.56689e-06
-2.21071e-12
5.56689e-06
1.17204e-12
5.56689e-06
4.60625e-12
5.56689e-06
8.18659e-12
5.56688e-06
1.20165e-11
5.56688e-06
1.61833e-11
5.56687e-06
2.0739e-11
5.56686e-06
2.56935e-11
5.56684e-06
3.10251e-11
5.56683e-06
3.78951e-11
4.28035e-11
7.81718e-06
-2.79795e-11
7.81719e-06
-2.89451e-11
7.81719e-06
-2.7724e-11
7.8172e-06
-2.56527e-11
7.8172e-06
-2.27362e-11
7.8172e-06
-1.92e-11
7.81721e-06
-1.52083e-11
7.81721e-06
-1.09547e-11
7.81721e-06
-6.58636e-12
7.81721e-06
-2.1669e-12
7.81721e-06
2.31532e-12
7.81721e-06
6.92468e-12
7.8172e-06
1.17645e-11
7.8172e-06
1.695e-11
7.81719e-06
2.25627e-11
7.81718e-06
2.86153e-11
7.81717e-06
3.50083e-11
7.81716e-06
4.15059e-11
7.81715e-06
4.92491e-11
5.45861e-11
1.00905e-05
-2.76513e-11
1.00905e-05
-2.88096e-11
1.00905e-05
-2.80286e-11
1.00905e-05
-2.61683e-11
1.00905e-05
-2.33048e-11
1.00905e-05
-1.96716e-11
1.00905e-05
-1.54446e-11
1.00905e-05
-1.08347e-11
1.00905e-05
-6.00155e-12
1.00905e-05
-1.02162e-12
1.00904e-05
4.10752e-12
1.00904e-05
9.44532e-12
1.00904e-05
1.50905e-11
1.00904e-05
2.11495e-11
1.00904e-05
2.76824e-11
1.00904e-05
3.46518e-11
1.00904e-05
4.18717e-11
1.00904e-05
4.89663e-11
1.00904e-05
5.71366e-11
6.28014e-11
1.23922e-05
-2.37009e-11
1.23922e-05
-2.49279e-11
1.23922e-05
-2.45516e-11
1.23922e-05
-2.29581e-11
1.23922e-05
-2.03729e-11
1.23922e-05
-1.6986e-11
1.23922e-05
-1.29516e-11
1.23922e-05
-8.46501e-12
1.23922e-05
-3.67449e-12
1.23922e-05
1.34439e-12
1.23922e-05
6.58892e-12
1.23922e-05
1.21135e-11
1.23922e-05
1.80078e-11
1.23922e-05
2.43597e-11
1.23922e-05
3.12078e-11
1.23922e-05
3.84811e-11
1.23922e-05
4.59486e-11
1.23922e-05
5.31714e-11
1.23922e-05
6.14518e-11
6.73751e-11
1.47274e-05
-1.6696e-11
1.47274e-05
-1.78972e-11
1.47274e-05
-1.78501e-11
1.47274e-05
-1.65061e-11
1.47274e-05
-1.43213e-11
1.47274e-05
-1.14275e-11
1.47274e-05
-7.93425e-12
1.47274e-05
-3.99032e-12
1.47274e-05
2.90836e-13
1.47274e-05
4.85053e-12
1.47274e-05
9.68865e-12
1.47274e-05
1.48569e-11
1.47274e-05
2.04375e-11
1.47274e-05
2.6505e-11
1.47274e-05
3.30845e-11
1.47274e-05
4.00973e-11
1.47274e-05
4.73108e-11
1.47274e-05
5.4297e-11
1.47274e-05
6.24455e-11
6.85694e-11
1.71001e-05
-7.41059e-12
1.71001e-05
-8.50948e-12
1.71001e-05
-8.71728e-12
1.71001e-05
-7.57235e-12
1.71001e-05
-5.84077e-12
1.71001e-05
-3.59787e-12
1.71001e-05
-8.99142e-13
1.71001e-05
2.17418e-12
1.71e-05
5.56206e-12
1.71e-05
9.23956e-12
1.71e-05
1.3221e-11
1.71e-05
1.75615e-11
1.71e-05
2.23385e-11
1.71e-05
2.76207e-11
1.71e-05
3.3432e-11
1.71e-05
3.97148e-11
1.71e-05
4.62717e-11
1.71e-05
5.27372e-11
1.71e-05
6.05584e-11
6.68214e-11
1.95134e-05
3.25959e-12
1.95134e-05
2.3224e-12
1.95134e-05
1.91085e-12
1.95134e-05
2.908e-12
1.95134e-05
4.17401e-12
1.95133e-05
5.67866e-12
1.95133e-05
7.42547e-12
1.95133e-05
9.40824e-12
1.95133e-05
1.16316e-11
1.95133e-05
1.41173e-11
1.95133e-05
1.69056e-11
1.95133e-05
2.00621e-11
1.95133e-05
2.36652e-11
1.95133e-05
2.77859e-11
1.95133e-05
3.24589e-11
1.95133e-05
3.76624e-11
1.95133e-05
4.32654e-11
1.95133e-05
4.89965e-11
1.95133e-05
5.63401e-11
6.26577e-11
2.19695e-05
1.43676e-11
2.19694e-05
1.36202e-11
2.19694e-05
1.30272e-11
2.19694e-05
1.39026e-11
2.19694e-05
1.47079e-11
2.19694e-05
1.54412e-11
2.19694e-05
1.61649e-11
2.19694e-05
1.69477e-11
2.19694e-05
1.78627e-11
2.19694e-05
1.89837e-11
2.19694e-05
2.03857e-11
2.19694e-05
2.21488e-11
2.19694e-05
2.43568e-11
2.19694e-05
2.70872e-11
2.19694e-05
3.03961e-11
2.19694e-05
3.43071e-11
2.19694e-05
3.87719e-11
2.19694e-05
4.36263e-11
2.19694e-05
5.03836e-11
5.66636e-11
2.44694e-05
2.49465e-11
2.44693e-05
2.43947e-11
2.44693e-05
2.36046e-11
2.44693e-05
2.43493e-11
2.44693e-05
2.46955e-11
2.44693e-05
2.46663e-11
2.44693e-05
2.43727e-11
2.44693e-05
2.3954e-11
2.44693e-05
2.35483e-11
2.44693e-05
2.32796e-11
2.44693e-05
2.32577e-11
2.44693e-05
2.35788e-11
2.44693e-05
2.4332e-11
2.44693e-05
2.56021e-11
2.44693e-05
2.7471e-11
2.44693e-05
3.0013e-11
2.44693e-05
3.32673e-11
2.44693e-05
3.71824e-11
2.44693e-05
4.32797e-11
4.94594e-11
2.70131e-05
3.40575e-11
2.70131e-05
3.36907e-11
2.70131e-05
3.26454e-11
2.70131e-05
3.32082e-11
2.70131e-05
3.3088e-11
2.70131e-05
3.2341e-11
2.70131e-05
3.11096e-11
2.70131e-05
2.95931e-11
2.70131e-05
2.79831e-11
2.70131e-05
2.64451e-11
2.70131e-05
2.51167e-11
2.70131e-05
2.41064e-11
2.70131e-05
2.3504e-11
2.70131e-05
2.3399e-11
2.70131e-05
2.38965e-11
2.70131e-05
2.51231e-11
2.70131e-05
2.72023e-11
2.70131e-05
3.01989e-11
2.70131e-05
3.56093e-11
4.16495e-11
2.95997e-05
4.085e-11
2.95997e-05
4.06117e-11
2.95997e-05
3.92332e-11
2.95997e-05
3.95207e-11
2.95997e-05
3.89267e-11
2.95996e-05
3.75439e-11
2.95996e-05
3.55284e-11
2.95996e-05
3.31183e-11
2.95996e-05
3.05411e-11
2.95996e-05
2.79886e-11
2.95996e-05
2.56123e-11
2.95996e-05
2.35236e-11
2.95996e-05
2.18067e-11
2.95996e-05
2.05507e-11
2.95996e-05
1.98777e-11
2.95996e-05
1.99597e-11
2.95997e-05
2.09981e-11
2.95997e-05
2.31669e-11
2.95997e-05
2.79216e-11
3.37817e-11
3.22269e-05
4.45909e-11
3.22269e-05
4.4376e-11
3.22269e-05
4.25876e-11
3.22269e-05
4.24844e-11
3.22269e-05
4.14274e-11
3.22269e-05
3.95378e-11
3.22269e-05
3.69694e-11
3.22269e-05
3.39655e-11
3.22269e-05
3.07644e-11
3.22269e-05
2.75631e-11
3.22269e-05
2.4511e-11
3.22269e-05
2.17103e-11
3.22269e-05
1.92333e-11
3.22269e-05
1.71636e-11
3.22269e-05
1.56292e-11
3.22269e-05
1.48321e-11
3.22269e-05
1.50389e-11
3.22269e-05
1.65192e-11
3.22269e-05
2.06895e-11
2.63541e-11
3.48916e-05
4.46966e-11
3.48916e-05
4.43865e-11
3.48916e-05
4.21289e-11
3.48916e-05
4.15426e-11
3.48916e-05
4.00874e-11
3.48916e-05
3.78893e-11
3.48916e-05
3.50729e-11
3.48916e-05
3.1854e-11
3.48916e-05
2.8453e-11
3.48916e-05
2.50468e-11
3.48916e-05
2.17652e-11
3.48917e-05
1.8691e-11
3.48917e-05
1.58819e-11
3.48917e-05
1.34101e-11
3.48917e-05
1.13928e-11
3.48917e-05
1.00397e-11
3.48917e-05
9.66789e-12
3.48917e-05
1.06361e-11
3.48917e-05
1.43177e-11
1.98366e-11
3.75898e-05
4.08234e-11
3.75898e-05
4.03027e-11
3.75898e-05
3.75823e-11
3.75899e-05
3.65158e-11
3.75899e-05
3.4824e-11
3.75899e-05
3.26019e-11
3.75899e-05
2.99081e-11
3.75899e-05
2.69023e-11
3.75899e-05
2.37558e-11
3.75899e-05
2.06088e-11
3.75899e-05
1.75627e-11
3.75899e-05
1.46761e-11
3.75899e-05
1.19878e-11
3.75899e-05
9.54877e-12
3.75899e-05
7.44394e-12
3.75899e-05
5.87149e-12
3.75899e-05
5.20155e-12
3.75899e-05
5.88185e-12
3.75899e-05
9.19787e-12
1.45906e-11
4.03166e-05
3.3026e-11
4.03166e-05
3.21788e-11
4.03166e-05
2.91632e-11
4.03167e-05
2.77884e-11
4.03167e-05
2.61617e-11
4.03167e-05
2.4275e-11
4.03167e-05
2.20925e-11
4.03167e-05
1.97088e-11
4.03167e-05
1.72324e-11
4.03167e-05
1.47606e-11
4.03167e-05
1.23686e-11
4.03167e-05
1.00865e-11
4.03167e-05
7.91713e-12
4.03167e-05
5.89282e-12
4.03167e-05
4.08893e-12
4.03167e-05
2.65509e-12
4.03167e-05
1.92821e-12
4.03167e-05
2.47495e-12
4.03167e-05
5.56468e-12
1.08203e-11
4.30664e-05
2.19461e-11
4.30664e-05
2.08251e-11
4.30664e-05
1.78974e-11
4.30664e-05
1.66113e-11
4.30664e-05
1.54424e-11
4.30665e-05
1.4224e-11
4.30665e-05
1.28586e-11
4.30665e-05
1.13929e-11
4.30665e-05
9.88339e-12
4.30665e-05
8.37541e-12
4.30665e-05
6.90526e-12
4.30665e-05
5.49064e-12
4.30665e-05
4.1387e-12
4.30665e-05
2.85166e-12
4.30665e-05
1.63112e-12
4.30665e-05
5.92383e-13
4.30665e-05
6.94792e-14
4.30665e-05
6.46585e-13
4.30665e-05
3.59566e-12
8.37069e-12
4.5833e-05
9.19724e-12
4.5833e-05
8.24236e-12
4.5833e-05
6.33083e-12
4.5833e-05
5.61735e-12
4.58331e-05
5.16349e-12
4.58331e-05
4.72959e-12
4.58331e-05
4.24893e-12
4.58331e-05
3.74447e-12
4.58331e-05
3.2225e-12
4.58331e-05
2.69404e-12
4.58331e-05
2.18699e-12
4.58331e-05
1.70126e-12
4.58331e-05
1.21552e-12
4.58331e-05
7.41665e-13
4.58331e-05
2.83187e-13
4.58331e-05
-1.38022e-13
4.58331e-05
-3.24501e-13
4.58331e-05
1.59855e-13
4.58331e-05
2.47479e-12
6.78091e-12
4.86099e-05
4.86099e-05
4.86099e-05
4.86099e-05
4.86099e-05
4.86099e-05
4.86099e-05
4.86099e-05
4.86099e-05
4.86099e-05
4.86099e-05
4.86099e-05
4.86099e-05
4.86099e-05
4.86099e-05
4.86099e-05
4.86099e-05
4.86099e-05
4.86099e-05
)
;

boundaryField
{
    movingWall
    {
        type            calculated;
        value           uniform 0;
    }
    bottomWall
    {
        type            calculated;
        value           uniform 0;
    }
    leftSide
    {
        type            calculated;
        value           nonuniform List<scalar> 
20
(
-1.10995e-06
-3.33329e-06
-5.56684e-06
-7.81718e-06
-1.00905e-05
-1.23922e-05
-1.47274e-05
-1.71001e-05
-1.95134e-05
-2.19695e-05
-2.44694e-05
-2.70131e-05
-2.95997e-05
-3.22269e-05
-3.48916e-05
-3.75898e-05
-4.03166e-05
-4.30664e-05
-4.5833e-05
-4.86099e-05
)
;
    }
    rightSide
    {
        type            calculated;
        value           nonuniform List<scalar> 
20
(
1.10995e-06
3.33327e-06
5.56682e-06
7.81714e-06
1.00904e-05
1.23922e-05
1.47274e-05
1.71e-05
1.95133e-05
2.19694e-05
2.44693e-05
2.70131e-05
2.95997e-05
3.22269e-05
3.48917e-05
3.75899e-05
4.03167e-05
4.30665e-05
4.58331e-05
4.86099e-05
)
;
    }
    frontAndBack
    {
        type            empty;
        value           nonuniform 0();
    }
}


// ************************************************************************* //
