/*--------------------------------*- C++ -*----------------------------------*\
| =========                 |                                                 |
| \\      /  F ield         | OpenFOAM: The Open Source CFD Toolbox           |
|  \\    /   O peration     | Version:  v1906                                 |
|   \\  /    A nd           | Web:      www.OpenFOAM.com                      |
|    \\/     M anipulation  |                                                 |
\*---------------------------------------------------------------------------*/
FoamFile
{
    version     2.0;
    format      ascii;
    class       volVectorField;
    location    "0.3";
    object      U;
}
// * * * * * * * * * * * * * * * * * * * * * * * * * * * * * * * * * * * * * //

dimensions      [0 1 -1 0 0 0 0];


internalField   nonuniform List<vector> 
400
(
(0.0221991 -7.84553e-08 0)
(0.0221993 -6.85987e-08 0)
(0.0221994 -5.68667e-08 0)
(0.0221995 -4.76794e-08 0)
(0.0221996 -3.98342e-08 0)
(0.0221997 -3.23506e-08 0)
(0.0221998 -2.47604e-08 0)
(0.0221998 -1.74614e-08 0)
(0.0221998 -1.06902e-08 0)
(0.0221999 -4.49653e-09 0)
(0.0221999 1.24261e-09 0)
(0.0221998 6.71275e-09 0)
(0.0221998 1.22457e-08 0)
(0.0221998 1.81423e-08 0)
(0.0221997 2.46255e-08 0)
(0.0221997 3.19535e-08 0)
(0.0221996 4.07074e-08 0)
(0.0221995 5.4208e-08 0)
(0.0221993 8.11441e-08 0)
(0.0221991 1.18199e-07 0)
(0.0666658 -2.4517e-07 0)
(0.066666 -2.46803e-07 0)
(0.0666662 -2.15059e-07 0)
(0.0666664 -1.88055e-07 0)
(0.0666665 -1.60558e-07 0)
(0.0666667 -1.32454e-07 0)
(0.0666668 -1.03225e-07 0)
(0.0666669 -7.43043e-08 0)
(0.0666669 -4.64476e-08 0)
(0.066667 -1.99344e-08 0)
(0.066667 5.57e-09 0)
(0.066667 3.07248e-08 0)
(0.0666669 5.64077e-08 0)
(0.0666668 8.36922e-08 0)
(0.0666667 1.13706e-07 0)
(0.0666666 1.47557e-07 0)
(0.0666664 1.86766e-07 0)
(0.0666662 2.37062e-07 0)
(0.0666659 3.22313e-07 0)
(0.0666655 3.86229e-07 0)
(0.111337 -4.32488e-07 0)
(0.111337 -4.38146e-07 0)
(0.111337 -4.03776e-07 0)
(0.111337 -3.63384e-07 0)
(0.111338 -3.16317e-07 0)
(0.111338 -2.64071e-07 0)
(0.111338 -2.08116e-07 0)
(0.111338 -1.51049e-07 0)
(0.111338 -9.45772e-08 0)
(0.111338 -3.92338e-08 0)
(0.111338 1.5311e-08 0)
(0.111338 7.015e-08 0)
(0.111338 1.26909e-07 0)
(0.111338 1.87398e-07 0)
(0.111338 2.534e-07 0)
(0.111337 3.26412e-07 0)
(0.111337 4.0756e-07 0)
(0.111337 4.98599e-07 0)
(0.111337 6.24078e-07 0)
(0.111336 7.18628e-07 0)
(0.156344 -5.44734e-07 0)
(0.156344 -5.60505e-07 0)
(0.156344 -5.31182e-07 0)
(0.156344 -4.88169e-07 0)
(0.156344 -4.30721e-07 0)
(0.156344 -3.62909e-07 0)
(0.156344 -2.87777e-07 0)
(0.156344 -2.08842e-07 0)
(0.156344 -1.28784e-07 0)
(0.156344 -4.86604e-08 0)
(0.156344 3.19323e-08 0)
(0.156344 1.14308e-07 0)
(0.156344 2.00417e-07 0)
(0.156344 2.92466e-07 0)
(0.156344 3.92251e-07 0)
(0.156344 5.00606e-07 0)
(0.156344 6.16815e-07 0)
(0.156343 7.38074e-07 0)
(0.156343 8.87278e-07 0)
(0.156343 9.90947e-07 0)
(0.201809 -5.77092e-07 0)
(0.201809 -5.97931e-07 0)
(0.201809 -5.77577e-07 0)
(0.201809 -5.377e-07 0)
(0.201809 -4.78428e-07 0)
(0.201809 -4.04689e-07 0)
(0.201809 -3.20173e-07 0)
(0.201809 -2.2905e-07 0)
(0.201809 -1.34488e-07 0)
(0.201809 -3.79805e-08 0)
(0.201809 6.05938e-08 0)
(0.201809 1.62576e-07 0)
(0.201809 2.70152e-07 0)
(0.201809 3.85595e-07 0)
(0.201809 5.10162e-07 0)
(0.201809 6.43481e-07 0)
(0.201808 7.82524e-07 0)
(0.201808 9.21059e-07 0)
(0.201808 1.08235e-06 0)
(0.201808 1.19385e-06 0)
(0.247845 -5.31173e-07 0)
(0.247845 -5.54957e-07 0)
(0.247845 -5.435e-07 0)
(0.247845 -5.08829e-07 0)
(0.247845 -4.53501e-07 0)
(0.247844 -3.81898e-07 0)
(0.247844 -2.97366e-07 0)
(0.247844 -2.04127e-07 0)
(0.247844 -1.05412e-07 0)
(0.247844 -2.84221e-09 0)
(0.247844 1.03508e-07 0)
(0.247844 2.14756e-07 0)
(0.247844 3.32893e-07 0)
(0.247844 4.6003e-07 0)
(0.247844 5.97127e-07 0)
(0.247844 7.42816e-07 0)
(0.247844 8.92572e-07 0)
(0.247844 1.03782e-06 0)
(0.247844 1.20383e-06 0)
(0.247844 1.32069e-06 0)
(0.294549 -4.17998e-07 0)
(0.294549 -4.42225e-07 0)
(0.294548 -4.38236e-07 0)
(0.294548 -4.08975e-07 0)
(0.294548 -3.60849e-07 0)
(0.294548 -2.9707e-07 0)
(0.294548 -2.20313e-07 0)
(0.294548 -1.34164e-07 0)
(0.294548 -4.13377e-08 0)
(0.294548 5.67856e-08 0)
(0.294548 1.60144e-07 0)
(0.294548 2.69716e-07 0)
(0.294548 3.87132e-07 0)
(0.294548 5.14019e-07 0)
(0.294548 6.51124e-07 0)
(0.294547 7.96777e-07 0)
(0.294547 9.46029e-07 0)
(0.294547 1.0898e-06 0)
(0.294547 1.25525e-06 0)
(0.294547 1.37637e-06 0)
(0.342002 -2.50691e-07 0)
(0.342002 -2.73806e-07 0)
(0.342002 -2.75584e-07 0)
(0.342002 -2.50953e-07 0)
(0.342002 -2.11602e-07 0)
(0.342001 -1.59541e-07 0)
(0.342001 -9.65503e-08 0)
(0.342001 -2.50432e-08 0)
(0.342001 5.31986e-08 0)
(0.342001 1.37337e-07 0)
(0.342001 2.27536e-07 0)
(0.342001 3.24859e-07 0)
(0.342001 4.30791e-07 0)
(0.342001 5.46577e-07 0)
(0.342001 6.7264e-07 0)
(0.342001 8.0764e-07 0)
(0.342001 9.47114e-07 0)
(0.342001 1.0829e-06 0)
(0.342001 1.24354e-06 0)
(0.342001 1.368e-06 0)
(0.390268 -4.63365e-08 0)
(0.390268 -6.68428e-08 0)
(0.390268 -7.31962e-08 0)
(0.390267 -5.1939e-08 0)
(0.390267 -2.18957e-08 0)
(0.390267 1.59627e-08 0)
(0.390267 6.10344e-08 0)
(0.390267 1.12409e-07 0)
(0.390267 1.69514e-07 0)
(0.390266 2.32291e-07 0)
(0.390266 3.01274e-07 0)
(0.390266 3.77705e-07 0)
(0.390266 4.63124e-07 0)
(0.390266 5.58802e-07 0)
(0.390266 6.65122e-07 0)
(0.390266 7.81267e-07 0)
(0.390266 9.03966e-07 0)
(0.390266 1.02685e-06 0)
(0.390266 1.17922e-06 0)
(0.390267 1.30577e-06 0)
(0.439389 1.76319e-07 0)
(0.439389 1.59526e-07 0)
(0.439389 1.4944e-07 0)
(0.439388 1.68183e-07 0)
(0.439388 1.88906e-07 0)
(0.439388 2.11298e-07 0)
(0.439388 2.36087e-07 0)
(0.439388 2.63981e-07 0)
(0.439388 2.95784e-07 0)
(0.439387 3.32417e-07 0)
(0.439387 3.74945e-07 0)
(0.439387 4.24795e-07 0)
(0.439387 4.83611e-07 0)
(0.439387 5.52882e-07 0)
(0.439387 6.33437e-07 0)
(0.439387 7.25246e-07 0)
(0.439387 8.26549e-07 0)
(0.439388 9.33015e-07 0)
(0.439388 1.0746e-06 0)
(0.439388 1.20119e-06 0)
(0.489387 3.9832e-07 0)
(0.489387 3.85186e-07 0)
(0.489387 3.71581e-07 0)
(0.489387 3.87941e-07 0)
(0.489386 3.99446e-07 0)
(0.489386 4.06238e-07 0)
(0.489386 4.10205e-07 0)
(0.489386 4.13559e-07 0)
(0.489386 4.18488e-07 0)
(0.489386 4.26956e-07 0)
(0.489386 4.40715e-07 0)
(0.489385 4.61427e-07 0)
(0.489385 4.90833e-07 0)
(0.489385 5.30667e-07 0)
(0.489386 5.82408e-07 0)
(0.489386 6.47044e-07 0)
(0.489386 7.24459e-07 0)
(0.489386 8.12416e-07 0)
(0.489386 9.41359e-07 0)
(0.489386 1.06617e-06 0)
(0.540263 6.00311e-07 0)
(0.540262 5.90818e-07 0)
(0.540262 5.72732e-07 0)
(0.540262 5.86075e-07 0)
(0.540262 5.88298e-07 0)
(0.540262 5.80152e-07 0)
(0.540261 5.64305e-07 0)
(0.540261 5.44238e-07 0)
(0.540261 5.23319e-07 0)
(0.540261 5.04461e-07 0)
(0.540261 4.90119e-07 0)
(0.540261 4.82285e-07 0)
(0.540261 4.82774e-07 0)
(0.540261 4.93477e-07 0)
(0.540261 5.16437e-07 0)
(0.540261 5.53691e-07 0)
(0.540261 6.06763e-07 0)
(0.540262 6.7566e-07 0)
(0.540262 7.90718e-07 0)
(0.540262 9.13081e-07 0)
(0.591994 7.64079e-07 0)
(0.591993 7.57852e-07 0)
(0.591993 7.33722e-07 0)
(0.591993 7.42529e-07 0)
(0.591993 7.3521e-07 0)
(0.591993 7.13342e-07 0)
(0.591993 6.80011e-07 0)
(0.591993 6.39648e-07 0)
(0.591993 5.96417e-07 0)
(0.591993 5.53924e-07 0)
(0.591993 5.1516e-07 0)
(0.591993 4.82456e-07 0)
(0.591993 4.5767e-07 0)
(0.591993 4.42678e-07 0)
(0.591993 4.39788e-07 0)
(0.591993 4.51922e-07 0)
(0.591993 4.82226e-07 0)
(0.591993 5.33158e-07 0)
(0.591993 6.34396e-07 0)
(0.591993 7.53739e-07 0)
(0.644538 8.73471e-07 0)
(0.644538 8.68619e-07 0)
(0.644538 8.36932e-07 0)
(0.644538 8.38997e-07 0)
(0.644538 8.22072e-07 0)
(0.644538 7.88485e-07 0)
(0.644538 7.41384e-07 0)
(0.644537 6.85697e-07 0)
(0.644537 6.26032e-07 0)
(0.644537 5.66286e-07 0)
(0.644537 5.09653e-07 0)
(0.644538 4.58565e-07 0)
(0.644538 4.14754e-07 0)
(0.644538 3.79881e-07 0)
(0.644538 3.56261e-07 0)
(0.644538 3.47569e-07 0)
(0.644538 3.58633e-07 0)
(0.644538 3.94205e-07 0)
(0.644538 4.83093e-07 0)
(0.644538 5.98437e-07 0)
(0.697833 9.14675e-07 0)
(0.697833 9.087e-07 0)
(0.697833 8.68001e-07 0)
(0.697833 8.61139e-07 0)
(0.697833 8.35314e-07 0)
(0.697833 7.93202e-07 0)
(0.697833 7.37703e-07 0)
(0.697833 6.73415e-07 0)
(0.697833 6.05027e-07 0)
(0.697833 5.36425e-07 0)
(0.697833 4.70638e-07 0)
(0.697833 4.09719e-07 0)
(0.697833 3.54917e-07 0)
(0.697833 3.07542e-07 0)
(0.697833 2.69926e-07 0)
(0.697833 2.46456e-07 0)
(0.697833 2.43445e-07 0)
(0.697834 2.67227e-07 0)
(0.697834 3.45236e-07 0)
(0.697834 4.56017e-07 0)
(0.751797 8.78099e-07 0)
(0.751797 8.68669e-07 0)
(0.751797 8.18055e-07 0)
(0.751797 8.01084e-07 0)
(0.751797 7.68641e-07 0)
(0.751797 7.22916e-07 0)
(0.751797 6.65821e-07 0)
(0.751797 6.01126e-07 0)
(0.751798 5.33038e-07 0)
(0.751798 4.65104e-07 0)
(0.751798 3.99793e-07 0)
(0.751798 3.3829e-07 0)
(0.751798 2.81171e-07 0)
(0.751798 2.29655e-07 0)
(0.751798 1.86289e-07 0)
(0.751798 1.55513e-07 0)
(0.751798 1.43788e-07 0)
(0.751798 1.58969e-07 0)
(0.751798 2.28261e-07 0)
(0.751798 3.37768e-07 0)
(0.806333 7.57716e-07 0)
(0.806333 7.43769e-07 0)
(0.806333 6.84511e-07 0)
(0.806333 6.59082e-07 0)
(0.806333 6.24521e-07 0)
(0.806333 5.81766e-07 0)
(0.806333 5.30958e-07 0)
(0.806334 4.74892e-07 0)
(0.806334 4.16728e-07 0)
(0.806334 3.58953e-07 0)
(0.806334 3.02996e-07 0)
(0.806334 2.49456e-07 0)
(0.806334 1.98956e-07 0)
(0.806334 1.52535e-07 0)
(0.806334 1.11591e-07 0)
(0.806334 7.98832e-08 0)
(0.806334 6.50919e-08 0)
(0.806335 7.69067e-08 0)
(0.806335 1.40261e-07 0)
(0.806334 2.4509e-07 0)
(0.861328 5.63519e-07 0)
(0.861328 5.40156e-07 0)
(0.861328 4.78049e-07 0)
(0.861329 4.49788e-07 0)
(0.861329 4.20296e-07 0)
(0.861329 3.87923e-07 0)
(0.861329 3.51356e-07 0)
(0.861329 3.12033e-07 0)
(0.86133 2.71497e-07 0)
(0.86133 2.31041e-07 0)
(0.86133 1.9174e-07 0)
(0.86133 1.53957e-07 0)
(0.86133 1.17586e-07 0)
(0.86133 8.32465e-08 0)
(0.86133 5.21629e-08 0)
(0.86133 2.64309e-08 0)
(0.86133 1.27879e-08 0)
(0.86133 2.4215e-08 0)
(0.86133 8.52638e-08 0)
(0.86133 1.93551e-07 0)
(0.91666 3.02581e-07 0)
(0.91666 2.86659e-07 0)
(0.916661 2.33296e-07 0)
(0.916661 2.11348e-07 0)
(0.916661 1.945e-07 0)
(0.916661 1.78143e-07 0)
(0.916661 1.60292e-07 0)
(0.916661 1.41539e-07 0)
(0.916662 1.22297e-07 0)
(0.916662 1.02841e-07 0)
(0.916662 8.36599e-08 0)
(0.916662 6.5078e-08 0)
(0.916662 4.72423e-08 0)
(0.916662 3.01282e-08 0)
(0.916662 1.3359e-08 0)
(0.916662 -1.53806e-09 0)
(0.916662 -9.0849e-09 0)
(0.916662 2.42681e-09 0)
(0.916662 6.1877e-08 0)
(0.916662 1.54272e-07 0)
(0.972197 9.64372e-08 0)
(0.972197 7.23503e-08 0)
(0.972197 5.50157e-08 0)
(0.972198 4.68115e-08 0)
(0.972198 4.20051e-08 0)
(0.972198 3.79584e-08 0)
(0.972198 3.40058e-08 0)
(0.972198 3.01356e-08 0)
(0.972198 2.58512e-08 0)
(0.972198 2.10152e-08 0)
(0.972198 1.63109e-08 0)
(0.972198 1.21498e-08 0)
(0.972198 8.19394e-09 0)
(0.972198 4.13508e-09 0)
(0.972198 -5.73896e-10 0)
(0.972198 -5.56315e-09 0)
(0.972198 -7.50659e-09 0)
(0.972198 -1.51251e-09 0)
(0.972198 2.48853e-08 0)
(0.972198 7.47078e-08 0)
)
;

boundaryField
{
    movingWall
    {
        type            fixedValue;
        value           uniform (1 0 0);
    }
    bottomWall
    {
        type            noSlip;
    }
    leftSide
    {
        type            zeroGradient;
    }
    rightSide
    {
        type            zeroGradient;
    }
    frontAndBack
    {
        type            empty;
    }
}


// ************************************************************************* //
