/*--------------------------------*- C++ -*----------------------------------*\
| =========                 |                                                 |
| \\      /  F ield         | OpenFOAM: The Open Source CFD Toolbox           |
|  \\    /   O peration     | Version:  v1906                                 |
|   \\  /    A nd           | Web:      www.OpenFOAM.com                      |
|    \\/     M anipulation  |                                                 |
\*---------------------------------------------------------------------------*/
FoamFile
{
    version     2.0;
    format      ascii;
    class       volScalarField;
    location    "0.5";
    object      p;
}
// * * * * * * * * * * * * * * * * * * * * * * * * * * * * * * * * * * * * * //

dimensions      [0 2 -2 0 0 0 0];


internalField   nonuniform List<scalar> 
1600
(
-8.17
-9.73057
-22.2136
-25.6723
-38.6714
-40.8939
-48.9126
-50.2151
-55.1902
-56.0287
-59.3529
-59.9123
-62.1506
-62.5179
-64.0214
-64.2679
-65.3224
-65.5004
-66.2992
-66.4395
-67.0912
-67.2097
-67.7705
-67.8751
-68.3746
-68.4694
-68.9245
-69.012
-69.4327
-69.5144
-69.9079
-69.9846
-70.355
-70.4277
-70.7794
-70.8481
-71.1773
-71.2416
-71.4983
-71.5264
-9.51088
-10.8113
-23.0566
-26.2448
-39.028
-41.0767
-49.0123
-50.2129
-55.1754
-55.9483
-59.2919
-59.8075
-62.077
-62.4156
-63.9514
-64.1786
-65.2621
-65.4262
-66.2496
-66.379
-67.051
-67.1603
-67.7378
-67.8342
-68.3476
-68.435
-68.9018
-68.9824
-69.4134
-69.4886
-69.8913
-69.962
-70.3406
-70.4077
-70.7675
-70.8309
-71.167
-71.2263
-71.5002
-71.5257
-20.321
-21.312
-31.2414
-32.7289
-41.9564
-43.1489
-49.4991
-50.3154
-54.6692
-55.2508
-58.3952
-58.8259
-61.1089
-61.4248
-63.073
-63.3049
-64.524
-64.7001
-65.6471
-65.7876
-66.5612
-66.6781
-67.3358
-67.4364
-68.0125
-68.1014
-68.6179
-68.6981
-69.1694
-69.2431
-69.6799
-69.7483
-70.157
-70.2216
-70.6108
-70.6714
-71.0415
-71.1034
-71.4335
-71.4664
-23.303
-24.0608
-32.3395
-33.8269
-42.2858
-43.4784
-49.5184
-50.3347
-54.5555
-55.1371
-58.2286
-58.6593
-60.9385
-61.2544
-62.9219
-63.1537
-64.3974
-64.5736
-65.5429
-65.6833
-66.4751
-66.5921
-67.264
-67.3646
-67.9517
-68.0406
-68.5658
-68.646
-69.1242
-69.1978
-69.6405
-69.7089
-70.1226
-70.1873
-70.5823
-70.643
-71.0173
-71.0792
-71.4226
-71.4545
-33.8172
-34.2888
-38.9123
-39.6313
-44.8883
-45.6262
-50.0793
-50.7008
-54.2247
-54.7242
-57.5195
-57.92
-60.12
-60.4357
-62.1404
-62.3857
-63.7098
-63.9022
-64.9554
-65.1107
-65.9758
-66.1051
-66.8377
-66.9484
-67.5848
-67.682
-68.2475
-68.3346
-68.8464
-68.9259
-69.3981
-69.4717
-69.9128
-69.9831
-70.408
-70.4743
-70.8814
-70.9526
-71.3413
-71.3794
-35.5673
-35.9019
-39.7152
-40.4343
-45.2085
-45.9464
-50.1645
-50.786
-54.2002
-54.6997
-57.4384
-57.8389
-60.016
-60.3317
-62.0349
-62.2802
-63.6127
-63.8051
-64.8693
-65.0245
-65.9004
-66.0296
-66.7717
-66.8824
-67.5271
-67.6242
-68.1967
-68.2838
-68.8015
-68.8811
-69.3587
-69.4323
-69.8781
-69.9485
-70.3796
-70.4459
-70.8576
-70.9289
-71.326
-71.3628
-41.7294
-41.9515
-44.0972
-44.4744
-47.4981
-47.9729
-51.1134
-51.585
-54.4088
-54.8242
-57.228
-57.5791
-59.5785
-59.87
-61.5053
-61.7441
-63.0743
-63.2698
-64.3623
-64.5244
-65.4389
-65.5761
-66.3579
-66.4762
-67.1578
-67.2619
-67.8673
-67.9604
-68.5072
-68.5922
-69.0964
-69.1751
-69.6458
-69.7214
-70.1796
-70.2511
-70.6875
-70.7642
-71.1875
-71.2285
-42.7404
-42.8834
-44.6784
-45.0556
-47.8268
-48.3016
-51.2723
-51.7439
-54.4651
-54.8804
-57.2178
-57.569
-59.5275
-59.8189
-61.4343
-61.673
-62.9971
-63.1926
-64.2863
-64.4485
-65.3674
-65.5046
-66.292
-66.4104
-67.0977
-67.2018
-67.8127
-67.9058
-68.4576
-68.5426
-69.0515
-69.1301
-69.6049
-69.6805
-70.1433
-70.2149
-70.6545
-70.7313
-71.1526
-71.1907
-46.6433
-46.767
-47.9008
-48.1222
-49.9748
-50.2905
-52.5129
-52.8619
-55.059
-55.3894
-57.3701
-57.6634
-59.3887
-59.6436
-61.124
-61.3431
-62.6036
-62.7911
-63.8651
-64.026
-64.9489
-65.0883
-65.8913
-66.0134
-66.7212
-66.8296
-67.4624
-67.5598
-68.1326
-68.2217
-68.7505
-68.8329
-69.3253
-69.4043
-69.8829
-69.9573
-70.4049
-70.4816
-70.905
-70.9463
-47.3205
-47.3912
-48.3545
-48.5759
-50.2927
-50.6083
-52.7067
-53.0557
-55.1607
-55.4911
-57.4064
-57.6997
-59.38
-59.6348
-61.0871
-61.3063
-62.5514
-62.7389
-63.8061
-63.9669
-64.8879
-65.0272
-65.8309
-65.953
-66.6629
-66.7713
-67.4068
-67.5043
-68.0798
-68.169
-68.7006
-68.783
-69.2776
-69.3567
-69.8369
-69.9112
-70.3596
-70.4362
-70.8478
-70.8843
-50.0923
-50.1719
-50.8575
-50.999
-52.2005
-52.4154
-53.989
-54.2445
-55.9189
-56.1768
-57.7717
-58.0124
-59.465
-59.6833
-60.9832
-61.1786
-62.33
-62.5033
-63.5179
-63.6711
-64.5659
-64.7018
-65.4956
-65.6167
-66.3262
-66.4351
-67.0755
-67.1742
-67.757
-67.8476
-68.3866
-68.4704
-68.9702
-69.0498
-69.5304
-69.6042
-70.0435
-70.1156
-70.5104
-70.5495
-50.5873
-50.6282
-51.2146
-51.3561
-52.4792
-52.6941
-54.1809
-54.4365
-56.0376
-56.2954
-57.8348
-58.0755
-59.4875
-59.7058
-60.9771
-61.1725
-62.305
-62.4783
-63.4811
-63.6343
-64.5223
-64.6581
-65.4482
-65.5693
-66.277
-66.3859
-67.0258
-67.1245
-67.7073
-67.798
-68.3372
-68.4209
-68.9208
-69.0003
-69.4794
-69.5533
-69.9907
-70.0628
-70.4405
-70.4736
-52.6693
-52.7244
-53.1778
-53.2733
-54.0887
-54.2392
-55.3679
-55.5568
-56.8319
-57.0335
-58.3124
-58.5096
-59.7241
-59.9097
-61.0361
-61.2077
-62.238
-62.3948
-63.3287
-63.4709
-64.3139
-64.4426
-65.2043
-65.3209
-66.0113
-66.1175
-66.7471
-66.8441
-67.4206
-67.5101
-68.044
-68.1266
-68.6198
-68.6973
-69.1642
-69.2352
-69.6529
-69.7185
-70.0713
-70.1066
-53.0464
-53.072
-53.4595
-53.5551
-54.3231
-54.4736
-55.5439
-55.7329
-56.9534
-57.155
-58.3896
-58.5867
-59.7667
-59.9523
-61.0524
-61.224
-62.2349
-62.3917
-63.3118
-63.454
-64.2875
-64.4162
-65.1714
-65.288
-65.9741
-66.0803
-66.7069
-66.8039
-67.3783
-67.4677
-67.9997
-68.0823
-68.5736
-68.6511
-69.1145
-69.1855
-69.6
-69.6656
-70.001
-70.0303
-54.6615
-54.7014
-55.019
-55.0865
-55.6638
-55.773
-56.6027
-56.7453
-57.7274
-57.8864
-58.9161
-59.0779
-60.0923
-60.2497
-61.2197
-61.3694
-62.281
-62.4212
-63.2678
-63.3978
-64.1779
-64.2978
-65.0147
-65.1249
-65.7835
-65.885
-66.4914
-66.5849
-67.1435
-67.2301
-67.748
-67.8278
-68.3048
-68.379
-68.8238
-68.8909
-69.2828
-69.3422
-69.6537
-69.6849
-54.9573
-54.9741
-55.2447
-55.3123
-55.86
-55.9692
-56.7598
-56.9024
-57.8448
-58.0038
-58.9986
-59.1603
-60.1459
-60.3033
-61.2501
-61.3997
-62.2931
-62.4333
-63.266
-63.3959
-64.1657
-64.2855
-64.9947
-65.105
-65.7577
-65.8593
-66.4612
-66.5547
-67.1098
-67.1963
-67.711
-67.7909
-68.2649
-68.3391
-68.7797
-68.8469
-69.2353
-69.2947
-69.5915
-69.6174
-56.243
-56.2732
-56.5059
-56.5558
-56.9814
-57.0634
-57.6909
-57.8009
-58.5696
-58.6965
-59.5315
-59.6648
-60.5138
-60.6473
-61.4813
-61.6114
-62.414
-62.5387
-63.3
-63.4179
-64.1327
-64.2432
-64.9104
-65.0134
-65.6339
-65.7298
-66.3062
-66.3953
-66.9296
-67.0122
-67.5083
-67.5847
-68.041
-68.1115
-68.5323
-68.5956
-68.9633
-69.0178
-69.2962
-69.3238
-56.4808
-56.4923
-56.6899
-56.7399
-57.1464
-57.2284
-57.8292
-57.9393
-58.6789
-58.8057
-59.6135
-59.7468
-60.5721
-60.7056
-61.5196
-61.6498
-62.436
-62.5607
-63.3089
-63.4268
-64.1313
-64.2418
-64.9008
-65.0039
-65.6179
-65.7139
-66.2852
-66.3742
-66.9043
-66.987
-67.4792
-67.5556
-68.0086
-68.0791
-68.4959
-68.5593
-68.9237
-68.9782
-69.2456
-69.2689
-57.5253
-57.5488
-57.7261
-57.7644
-58.0897
-58.1532
-58.6407
-58.7276
-59.34
-59.4426
-60.1266
-60.2375
-60.9518
-61.0655
-61.7841
-61.8974
-62.6037
-62.7144
-63.3971
-63.5036
-64.1553
-64.2567
-64.8736
-64.9694
-65.5496
-65.6396
-66.1834
-66.2676
-66.7748
-66.8533
-67.3254
-67.3981
-67.8328
-67.8997
-68.298
-68.358
-68.7054
-68.7562
-69.0112
-69.0362
-57.7198
-57.7281
-57.8783
-57.9165
-58.2289
-58.2924
-58.7614
-58.8483
-59.4393
-59.5419
-60.2049
-60.3157
-61.0108
-61.1246
-61.8264
-61.9397
-62.6318
-62.7425
-63.4133
-63.5198
-64.1618
-64.2632
-64.8721
-64.9679
-65.5417
-65.6318
-66.1703
-66.2545
-66.7573
-66.8358
-67.3039
-67.3766
-67.808
-67.8749
-68.2697
-68.3297
-68.6743
-68.7252
-68.9724
-68.9941
-58.5811
-58.5999
-58.7394
-58.7696
-59.026
-59.0766
-59.4653
-59.5354
-60.0326
-60.117
-60.6847
-60.7778
-61.384
-61.4816
-62.1041
-62.2032
-62.8265
-62.925
-63.5374
-63.6337
-64.227
-64.3199
-64.8887
-64.9775
-65.5182
-65.6025
-66.1135
-66.1928
-66.6725
-66.7469
-67.195
-67.2641
-67.678
-67.7416
-68.1203
-68.1774
-68.5084
-68.5567
-68.7961
-68.8192
-58.7422
-58.7484
-58.8664
-58.8966
-59.144
-59.1946
-59.5701
-59.6402
-60.1216
-60.206
-60.7574
-60.8506
-61.4415
-61.5391
-62.1477
-62.2468
-62.8579
-62.9564
-63.5584
-63.6547
-64.2392
-64.3321
-64.8935
-64.9823
-65.5169
-65.6011
-66.1069
-66.1863
-66.6617
-66.7361
-67.1804
-67.2495
-67.6602
-67.7238
-68.0995
-68.1567
-68.4854
-68.5337
-68.7677
-68.7884
-59.4594
-59.4748
-59.5877
-59.6122
-59.8201
-59.8613
-60.1791
-60.2369
-60.6487
-60.7194
-61.1977
-61.2771
-61.7973
-61.8819
-62.4254
-62.5128
-63.0657
-63.1538
-63.7051
-63.7923
-64.3334
-64.4186
-64.9432
-65.0255
-65.5291
-65.6078
-66.0876
-66.1623
-66.6156
-66.686
-67.1114
-67.1772
-67.5717
-67.6325
-67.9943
-68.0491
-68.3668
-68.4133
-68.6423
-68.6641
-59.5939
-59.5988
-59.6943
-59.7188
-59.9203
-59.9616
-60.2697
-60.3276
-60.7277
-60.7984
-61.2643
-61.3436
-61.8517
-61.9363
-62.4686
-62.5559
-63.0987
-63.1867
-63.729
-63.8163
-64.3495
-64.4347
-64.9527
-65.0349
-65.5329
-65.6117
-66.0866
-66.1613
-66.6105
-66.681
-67.1028
-67.1686
-67.5602
-67.621
-67.9803
-68.0351
-68.351
-68.3975
-68.623
-68.6431
-60.1945
-60.2074
-60.3011
-60.3216
-60.4946
-60.5292
-60.7954
-60.8442
-61.1925
-61.2529
-61.663
-61.7316
-62.184
-62.2583
-62.7379
-62.8156
-63.3101
-63.3894
-63.8885
-63.968
-64.4634
-64.5418
-65.027
-65.1035
-65.5734
-65.6471
-66.0981
-66.1686
-66.5974
-66.6642
-67.0687
-67.1314
-67.5085
-67.5668
-67.9142
-67.9669
-68.274
-68.3191
-68.541
-68.5619
-60.3073
-60.3113
-60.3909
-60.4114
-60.5798
-60.6144
-60.8736
-60.9224
-61.2621
-61.3224
-61.723
-61.7917
-62.2347
-62.3089
-62.7795
-62.8571
-63.3432
-63.4225
-63.9141
-63.9936
-64.4823
-64.5607
-65.04
-65.1164
-65.5813
-65.655
-66.1016
-66.1721
-66.5972
-66.6641
-67.0654
-67.1281
-67.5026
-67.5608
-67.9061
-67.9589
-68.2643
-68.3095
-68.5292
-68.549
-60.8109
-60.8218
-60.9018
-60.9193
-61.0673
-61.0971
-61.3257
-61.3679
-61.6693
-61.7219
-62.0801
-62.1406
-62.5403
-62.6064
-63.035
-63.1049
-63.5517
-63.6238
-64.0795
-64.1524
-64.6089
-64.6815
-65.1325
-65.2039
-65.644
-65.7133
-66.1385
-66.2052
-66.612
-66.6756
-67.0614
-67.1214
-67.4831
-67.5391
-67.8741
-67.9252
-68.2233
-68.2674
-68.4841
-68.5042
-60.9053
-60.9088
-60.9772
-60.9947
-61.1395
-61.1692
-61.3928
-61.435
-61.7301
-61.7827
-62.1338
-62.1942
-62.5867
-62.6527
-63.0742
-63.1441
-63.5842
-63.6562
-64.1057
-64.1786
-64.6295
-64.7021
-65.1481
-65.2194
-65.6552
-65.7245
-66.1459
-66.2126
-66.6161
-66.6797
-67.0627
-67.1227
-67.482
-67.5381
-67.8713
-67.9224
-68.2191
-68.2632
-68.4786
-68.4983
-61.326
-61.3355
-61.4055
-61.421
-61.5513
-61.5775
-61.7793
-61.8167
-62.084
-62.1308
-62.4505
-62.5047
-62.8643
-62.9241
-63.313
-63.3767
-63.7855
-63.8518
-64.2721
-64.3397
-64.764
-64.8318
-65.2538
-65.3208
-65.7354
-65.801
-66.2039
-66.2672
-66.6547
-66.7155
-67.0849
-67.1425
-67.4907
-67.5448
-67.8693
-67.9189
-68.2095
-68.2526
-68.4653
-68.4848
-61.4045
-61.4078
-61.4685
-61.4839
-61.612
-61.6383
-61.8365
-61.8739
-62.1366
-62.1835
-62.498
-62.5522
-62.9063
-62.9661
-63.3495
-63.4132
-63.8167
-63.883
-64.2983
-64.3659
-64.7856
-64.8534
-65.2713
-65.3383
-65.7492
-65.8147
-66.2143
-66.2777
-66.6624
-66.7231
-67.0902
-67.1478
-67.4939
-67.548
-67.8709
-67.9206
-68.21
-68.2532
-68.4653
-68.4849
-61.7522
-61.7606
-61.8238
-61.8379
-61.9562
-61.9801
-62.1635
-62.1976
-62.4409
-62.4838
-62.7758
-62.8255
-63.1556
-63.2107
-63.5696
-63.6287
-64.0082
-64.07
-64.4624
-64.5258
-64.9242
-64.988
-65.3865
-65.4499
-65.8433
-65.9056
-66.2896
-66.3502
-66.7213
-66.7796
-67.135
-67.1906
-67.5271
-67.5796
-67.895
-67.9434
-68.2276
-68.27
-68.4793
-68.4983
-61.8165
-61.8198
-61.8756
-61.8897
-62.0066
-62.0305
-62.2116
-62.2457
-62.486
-62.5288
-62.8172
-62.867
-63.1931
-63.2482
-63.6031
-63.6622
-64.0378
-64.0996
-64.4882
-64.5515
-64.9463
-65.0102
-65.4053
-65.4687
-65.859
-65.9214
-66.3027
-66.3633
-66.732
-66.7903
-67.1436
-67.1992
-67.534
-67.5865
-67.9005
-67.949
-68.2322
-68.2746
-68.484
-68.5035
-62.098
-62.1055
-62.1648
-62.1782
-62.2897
-62.3122
-62.4844
-62.5165
-62.7445
-62.7847
-63.0582
-63.105
-63.4146
-63.4664
-63.804
-63.8597
-64.2178
-64.2763
-64.6478
-64.7079
-65.0864
-65.1472
-65.5271
-65.5877
-65.964
-66.0237
-66.3923
-66.4506
-66.808
-66.8643
-67.2079
-67.2618
-67.5884
-67.6395
-67.9472
-67.9945
-68.2732
-68.315
-68.5213
-68.54
-62.1491
-62.1526
-62.2064
-62.2197
-62.3307
-62.3533
-62.5243
-62.5564
-62.7826
-62.8229
-63.0942
-63.1409
-63.448
-63.4999
-63.8347
-63.8904
-64.2457
-64.3042
-64.6729
-64.7331
-65.1089
-65.1697
-65.547
-65.6076
-65.9815
-66.0413
-66.4077
-66.466
-66.8214
-66.8777
-67.2196
-67.2735
-67.5987
-67.6498
-67.9563
-68.0036
-68.2815
-68.3232
-68.5301
-68.5495
-62.3673
-62.3744
-62.4339
-62.4472
-62.5581
-62.5803
-62.7487
-62.7799
-63.0007
-63.0396
-63.3032
-63.3482
-63.6458
-63.6956
-64.0197
-64.0733
-64.4171
-64.4734
-64.8304
-64.8883
-65.2524
-65.311
-65.6769
-65.7354
-66.0985
-66.1563
-66.5127
-66.5691
-66.9154
-66.9701
-67.3038
-67.3562
-67.6746
-67.7244
-68.0253
-68.0718
-68.3454
-68.3864
-68.5897
-68.6081
-62.4052
-62.4093
-62.4656
-62.479
-62.5905
-62.6127
-62.7813
-62.8125
-63.033
-63.0719
-63.3346
-63.3797
-63.6761
-63.726
-64.0486
-64.1022
-64.4444
-64.5007
-64.8559
-64.9138
-65.2761
-65.3347
-65.6988
-65.7574
-66.1187
-66.1764
-66.5311
-66.5876
-66.9323
-66.9869
-67.3193
-67.3717
-67.6888
-67.7387
-68.0386
-68.085
-68.3578
-68.3989
-68.6031
-68.6226
-62.5563
-62.5637
-62.6285
-62.6432
-62.7612
-62.7846
-62.9576
-62.9896
-63.212
-63.2511
-63.5135
-63.5583
-63.8524
-63.9016
-64.2203
-64.273
-64.6099
-64.665
-65.014
-65.0706
-65.4261
-65.4833
-65.8401
-65.8972
-66.2511
-66.3074
-66.6547
-66.7097
-67.0474
-67.1007
-67.4265
-67.4777
-67.789
-67.8378
-68.133
-68.1786
-68.448
-68.4884
-68.6887
-68.7063
-62.5791
-62.5847
-62.6486
-62.6634
-62.7831
-62.8065
-62.981
-63.013
-63.2363
-63.2754
-63.5384
-63.5832
-63.8775
-63.9267
-64.2453
-64.298
-64.6344
-64.6896
-65.0379
-65.0945
-65.4491
-65.5063
-65.8622
-65.9193
-66.2721
-66.3285
-66.6747
-66.7297
-67.0662
-67.1195
-67.4442
-67.4954
-67.8058
-67.8547
-68.1491
-68.1947
-68.4636
-68.504
-68.7062
-68.7253
-62.6521
-62.6607
-62.7296
-62.7484
-62.8735
-62.9022
-63.08
-63.1179
-63.3418
-63.3874
-63.6486
-63.7002
-63.9906
-64.0469
-64.3598
-64.4196
-64.7488
-64.811
-65.1509
-65.2145
-65.5596
-65.6237
-65.9695
-66.0332
-66.3755
-66.4383
-66.7738
-66.8349
-67.1608
-67.22
-67.5343
-67.5911
-67.8918
-67.9461
-68.2317
-68.2827
-68.545
-68.5907
-68.778
-68.7957
-62.6605
-62.6692
-62.7362
-62.7566
-62.8808
-62.9119
-63.0877
-63.1288
-63.3498
-63.3992
-63.6567
-63.7127
-63.9988
-64.0599
-64.368
-64.4328
-64.7569
-64.8244
-65.1588
-65.2277
-65.5673
-65.6368
-65.9768
-66.046
-66.3826
-66.4506
-66.7805
-66.8468
-67.1672
-67.2314
-67.5403
-67.602
-67.8976
-67.9565
-68.2372
-68.2925
-68.5504
-68.6
-68.7808
-68.8007
)
;

boundaryField
{
    movingWall
    {
        type            zeroGradient;
    }
    bottomWall
    {
        type            zeroGradient;
    }
    leftSide
    {
        type            zeroGradient;
    }
    rightSide
    {
        type            zeroGradient;
    }
    frontAndBack
    {
        type            empty;
    }
}


// ************************************************************************* //
