/*--------------------------------*- C++ -*----------------------------------*\
| =========                 |                                                 |
| \\      /  F ield         | OpenFOAM: The Open Source CFD Toolbox           |
|  \\    /   O peration     | Version:  v1906                                 |
|   \\  /    A nd           | Web:      www.OpenFOAM.com                      |
|    \\/     M anipulation  |                                                 |
\*---------------------------------------------------------------------------*/
FoamFile
{
    version     2.0;
    format      ascii;
    class       volVectorField;
    location    "0.5";
    object      U;
}
// * * * * * * * * * * * * * * * * * * * * * * * * * * * * * * * * * * * * * //

dimensions      [0 1 -1 0 0 0 0];


internalField   nonuniform List<vector> 
1600
(
(8.75544 0.717001 0)
(8.66047 0.735374 0)
(8.19161 0.928643 0)
(8.01403 0.946461 0)
(7.21315 0.926808 0)
(7.00269 0.901449 0)
(6.11619 0.752448 0)
(5.92674 0.719429 0)
(5.16976 0.555596 0)
(5.02979 0.526877 0)
(4.45707 0.387606 0)
(4.35859 0.366592 0)
(3.93029 0.263584 0)
(3.85986 0.249981 0)
(3.53395 0.18048 0)
(3.48255 0.172332 0)
(3.23086 0.127653 0)
(3.19252 0.122941 0)
(2.99457 0.0945753 0)
(2.96504 0.0918497 0)
(2.80555 0.0735591 0)
(2.78198 0.0719274 0)
(2.65022 0.0596701 0)
(2.63079 0.0586238 0)
(2.51963 0.0499588 0)
(2.50322 0.0492293 0)
(2.40785 0.0427797 0)
(2.39375 0.0422336 0)
(2.3109 0.0372387 0)
(2.29861 0.0368215 0)
(2.22571 0.0329608 0)
(2.21488 0.0326543 0)
(2.15027 0.0297884 0)
(2.14052 0.0296422 0)
(2.08139 0.0281847 0)
(2.07239 0.0282317 0)
(2.01664 0.0285425 0)
(2.00641 0.0292014 0)
(2.01414 0.034722 0)
(2.05968 0.0366948 0)
(8.88209 0.742511 0)
(8.78429 0.75695 0)
(8.37122 0.987791 0)
(8.20753 1.00422 0)
(7.46946 0.989731 0)
(7.27546 0.966356 0)
(6.4245 0.814138 0)
(6.24987 0.783703 0)
(5.50379 0.611889 0)
(5.37476 0.585416 0)
(4.79607 0.435758 0)
(4.70529 0.416388 0)
(4.26178 0.302925 0)
(4.19686 0.290387 0)
(3.85183 0.211851 0)
(3.80446 0.20434 0)
(3.53303 0.152528 0)
(3.49769 0.148184 0)
(3.28117 0.114453 0)
(3.25395 0.111941 0)
(3.07775 0.089693 0)
(3.05601 0.0881889 0)
(2.90952 0.0730106 0)
(2.8916 0.0720462 0)
(2.76752 0.0611899 0)
(2.7524 0.0605175 0)
(2.64568 0.0523888 0)
(2.63269 0.0518854 0)
(2.53986 0.0455674 0)
(2.52853 0.0451828 0)
(2.44676 0.0402753 0)
(2.43678 0.0399928 0)
(2.36436 0.0362672 0)
(2.35537 0.0361325 0)
(2.28903 0.0340748 0)
(2.28074 0.034118 0)
(2.21954 0.0338694 0)
(2.21012 0.0344768 0)
(2.2316 0.0409095 0)
(2.29407 0.0432975 0)
(9.79795 0.936918 0)
(9.85192 0.995419 0)
(9.91823 1.37725 0)
(9.94936 1.42964 0)
(9.7759 1.51693 0)
(9.74608 1.50696 0)
(9.32081 1.38579 0)
(9.248 1.35417 0)
(8.73668 1.16798 0)
(8.64883 1.13067 0)
(8.14542 0.938283 0)
(8.0572 0.902999 0)
(7.59013 0.733675 0)
(7.50738 0.704429 0)
(7.08591 0.5694 0)
(7.0114 0.547144 0)
(6.63956 0.445411 0)
(6.57441 0.429261 0)
(6.2511 0.354516 0)
(6.19502 0.343013 0)
(5.9153 0.288238 0)
(5.86721 0.280021 0)
(5.62472 0.239361 0)
(5.58334 0.233376 0)
(5.37209 0.202509 0)
(5.33625 0.198029 0)
(5.15097 0.174017 0)
(5.11971 0.170561 0)
(4.9563 0.151457 0)
(4.92878 0.148741 0)
(4.78343 0.13343 0)
(4.7591 0.131273 0)
(4.62968 0.119079 0)
(4.60778 0.117484 0)
(4.49 0.108625 0)
(4.47081 0.107517 0)
(4.3645 0.102394 0)
(4.34391 0.10241 0)
(4.20513 0.103352 0)
(4.1707 0.103921 0)
(9.91583 0.937638 0)
(9.96058 0.996083 0)
(10.1077 1.40647 0)
(10.1388 1.45886 0)
(10.0784 1.57214 0)
(10.0485 1.56217 0)
(9.7239 1.45748 0)
(9.65109 1.42586 0)
(9.20567 1.24739 0)
(9.11781 1.21008 0)
(8.64994 1.01803 0)
(8.56173 0.982743 0)
(8.10968 0.80859 0)
(8.02693 0.779344 0)
(7.60705 0.636868 0)
(7.53254 0.614612 0)
(7.1539 0.504731 0)
(7.08876 0.488581 0)
(6.75396 0.406059 0)
(6.69788 0.394556 0)
(6.40448 0.33285 0)
(6.35639 0.324633 0)
(6.09952 0.278023 0)
(6.05814 0.272038 0)
(5.83266 0.236158 0)
(5.79682 0.231678 0)
(5.59788 0.203477 0)
(5.56661 0.200021 0)
(5.39038 0.177406 0)
(5.36286 0.17469 0)
(5.20544 0.156445 0)
(5.18111 0.154288 0)
(5.04083 0.139603 0)
(5.01893 0.138008 0)
(4.89048 0.127094 0)
(4.8713 0.125986 0)
(4.75752 0.119148 0)
(4.73693 0.119165 0)
(4.63495 0.120375 0)
(4.63699 0.122389 0)
(10.1124 0.748406 0)
(10.1445 0.793494 0)
(10.4515 1.23835 0)
(10.5124 1.30753 0)
(10.7679 1.53285 0)
(10.8095 1.55459 0)
(10.8769 1.57441 0)
(10.8885 1.57162 0)
(10.7982 1.49155 0)
(10.7852 1.47613 0)
(10.5926 1.34843 0)
(10.5627 1.32676 0)
(10.3073 1.18392 0)
(10.2664 1.16053 0)
(9.97642 1.02313 0)
(9.9292 1.00087 0)
(9.62677 0.87877 0)
(9.57714 0.858993 0)
(9.2781 0.754808 0)
(9.2288 0.737872 0)
(8.94264 0.650661 0)
(8.89531 0.636446 0)
(8.6267 0.563982 0)
(8.5822 0.552164 0)
(8.333 0.491964 0)
(8.29169 0.482165 0)
(8.06187 0.431979 0)
(8.02385 0.423832 0)
(7.81307 0.381751 0)
(7.77814 0.374965 0)
(7.58446 0.339598 0)
(7.55269 0.333923 0)
(7.37663 0.304257 0)
(7.34713 0.299592 0)
(7.18339 0.275321 0)
(7.1579 0.27159 0)
(7.01431 0.252701 0)
(6.98661 0.249866 0)
(6.80221 0.236621 0)
(6.76303 0.234787 0)
(10.1107 0.69386 0)
(10.143 0.743214 0)
(10.4378 1.18194 0)
(10.4987 1.25112 0)
(10.7794 1.4962 0)
(10.821 1.51794 0)
(10.9416 1.5627 0)
(10.9533 1.55992 0)
(10.9223 1.50264 0)
(10.9093 1.48722 0)
(10.7708 1.37756 0)
(10.7408 1.35589 0)
(10.5311 1.22517 0)
(10.4901 1.20178 0)
(10.2365 1.07098 0)
(10.1893 1.04872 0)
(9.91422 0.929013 0)
(9.86459 0.909237 0)
(9.58506 0.804642 0)
(9.53576 0.787706 0)
(9.26272 0.698415 0)
(9.21539 0.6842 0)
(8.95499 0.608792 0)
(8.9105 0.596974 0)
(8.66585 0.533488 0)
(8.62454 0.523689 0)
(8.39656 0.47018 0)
(8.35854 0.462034 0)
(8.1478 0.416761 0)
(8.11287 0.409975 0)
(7.91769 0.371595 0)
(7.88592 0.365919 0)
(7.70799 0.333511 0)
(7.6785 0.328846 0)
(7.51126 0.301817 0)
(7.48577 0.298085 0)
(7.34105 0.277085 0)
(7.31335 0.27425 0)
(7.16442 0.259728 0)
(7.15598 0.259854 0)
(10.0651 0.450925 0)
(10.0827 0.483825 0)
(10.3102 0.862461 0)
(10.3542 0.922778 0)
(10.6493 1.19862 0)
(10.698 1.23335 0)
(10.9468 1.36452 0)
(10.9866 1.38064 0)
(11.1461 1.41827 0)
(11.1716 1.4218 0)
(11.2406 1.39777 0)
(11.2521 1.39265 0)
(11.2432 1.33011 0)
(11.2424 1.31958 0)
(11.1709 1.23717 0)
(11.1601 1.22391 0)
(11.0418 1.13473 0)
(11.0236 1.12057 0)
(10.8735 1.03241 0)
(10.8501 1.01842 0)
(10.6805 0.935268 0)
(10.6537 0.922027 0)
(10.4735 0.845679 0)
(10.4449 0.833465 0)
(10.2609 0.764442 0)
(10.2315 0.753353 0)
(10.048 0.691496 0)
(10.0186 0.681527 0)
(9.83947 0.626367 0)
(9.81048 0.617446 0)
(9.63651 0.568325 0)
(9.60882 0.560411 0)
(9.44488 0.517007 0)
(9.41762 0.509912 0)
(9.2573 0.471237 0)
(9.2335 0.465258 0)
(9.09516 0.432623 0)
(9.06791 0.426634 0)
(8.8778 0.394066 0)
(8.84011 0.389471 0)
(10.0613 0.417795 0)
(10.0792 0.453287 0)
(10.2849 0.811988 0)
(10.3289 0.872305 0)
(10.6124 1.14948 0)
(10.6611 1.18421 0)
(10.9165 1.32613 0)
(10.9563 1.34225 0)
(11.1356 1.3933 0)
(11.1611 1.39683 0)
(11.2567 1.38645 0)
(11.2681 1.38133 0)
(11.2888 1.33106 0)
(11.288 1.32053 0)
(11.2465 1.24807 0)
(11.2357 1.23481 0)
(11.1459 1.15312 0)
(11.1277 1.13895 0)
(11.0034 1.05603 0)
(10.9799 1.04203 0)
(10.8328 0.962264 0)
(10.806 0.949022 0)
(10.645 0.874588 0)
(10.6164 0.862374 0)
(10.4483 0.794169 0)
(10.4189 0.78308 0)
(10.2483 0.721222 0)
(10.2189 0.711253 0)
(10.0505 0.655559 0)
(10.0215 0.646638 0)
(9.85575 0.596496 0)
(9.82806 0.588583 0)
(9.67106 0.544059 0)
(9.6438 0.536964 0)
(9.48807 0.496452 0)
(9.46427 0.490473 0)
(9.33077 0.456726 0)
(9.30351 0.450737 0)
(9.14638 0.417014 0)
(9.13148 0.414366 0)
(10.0331 0.283645 0)
(10.0429 0.308165 0)
(10.1757 0.591897 0)
(10.2028 0.63902 0)
(10.4189 0.891877 0)
(10.4555 0.9257 0)
(10.694 1.08874 0)
(10.732 1.11011 0)
(10.9461 1.2021 0)
(10.9794 1.21375 0)
(11.1478 1.2522 0)
(11.174 1.25645 0)
(11.2922 1.25565 0)
(11.3108 1.25448 0)
(11.3806 1.22705 0)
(11.3919 1.22223 0)
(11.4181 1.17848 0)
(11.4228 1.17141 0)
(11.4122 1.11872 0)
(11.4111 1.11039 0)
(11.3708 1.0536 0)
(11.3651 1.04468 0)
(11.3014 0.98685 0)
(11.292 0.977763 0)
(11.2109 0.920839 0)
(11.1985 0.911857 0)
(11.1042 0.856924 0)
(11.0898 0.848243 0)
(10.9875 0.796066 0)
(10.9714 0.787725 0)
(10.862 0.738217 0)
(10.8454 0.730402 0)
(10.7367 0.684462 0)
(10.7187 0.676841 0)
(10.6025 0.632231 0)
(10.5865 0.625551 0)
(10.4877 0.586805 0)
(10.4674 0.579104 0)
(10.3114 0.532647 0)
(10.2818 0.526443 0)
(10.0319 0.268154 0)
(10.0417 0.293886 0)
(10.1621 0.561717 0)
(10.1892 0.608841 0)
(10.3909 0.855366 0)
(10.4275 0.889189 0)
(10.6568 1.0528 0)
(10.6949 1.07417 0)
(10.9074 1.17022 0)
(10.9407 1.18187 0)
(11.1142 1.22643 0)
(11.1404 1.23068 0)
(11.2687 1.237 0)
(11.2874 1.23583 0)
(11.371 1.21555 0)
(11.3823 1.21073 0)
(11.4246 1.17354 0)
(11.4293 1.16647 0)
(11.4358 1.11945 0)
(11.4348 1.11113 0)
(11.4118 1.05906 0)
(11.406 1.05013 0)
(11.3591 0.996092 0)
(11.3496 0.987005 0)
(11.2843 0.933027 0)
(11.272 0.924045 0)
(11.1922 0.871283 0)
(11.1778 0.862602 0)
(11.0888 0.812006 0)
(11.0727 0.803665 0)
(10.9751 0.755063 0)
(10.9585 0.747248 0)
(10.8605 0.70197 0)
(10.8425 0.694349 0)
(10.7355 0.649461 0)
(10.7195 0.642781 0)
(10.6284 0.604197 0)
(10.6081 0.596496 0)
(10.4798 0.550121 0)
(10.4644 0.5454 0)
(10.0198 0.198664 0)
(10.0257 0.217262 0)
(10.1044 0.428979 0)
(10.1214 0.465446 0)
(10.2642 0.674812 0)
(10.2893 0.703785 0)
(10.4692 0.857828 0)
(10.4984 0.878574 0)
(10.6845 0.9823 0)
(10.7135 0.996004 0)
(10.8856 1.05912 0)
(10.9122 1.06723 0)
(11.0612 1.09859 0)
(11.0844 1.10234 0)
(11.2069 1.10972 0)
(11.2261 1.11017 0)
(11.3211 1.10031 0)
(11.3361 1.09837 0)
(11.4043 1.07663 0)
(11.4153 1.07304 0)
(11.4589 1.04337 0)
(11.4661 1.03864 0)
(11.4877 1.00383 0)
(11.4916 0.998343 0)
(11.4944 0.960451 0)
(11.4953 0.954479 0)
(11.4815 0.914773 0)
(11.48 0.908555 0)
(11.4536 0.868316 0)
(11.4498 0.861883 0)
(11.4107 0.820962 0)
(11.4055 0.814617 0)
(11.3615 0.77496 0)
(11.3542 0.768249 0)
(11.2961 0.726135 0)
(11.2892 0.72004 0)
(11.2415 0.683136 0)
(11.2306 0.675412 0)
(11.13 0.625034 0)
(11.1113 0.618759 0)
(10.0193 0.190361 0)
(10.0252 0.209608 0)
(10.0979 0.410618 0)
(10.1148 0.447085 0)
(10.248 0.649485 0)
(10.273 0.678458 0)
(10.4433 0.829745 0)
(10.4724 0.850492 0)
(10.6515 0.954221 0)
(10.6806 0.967925 0)
(10.8491 1.03292 0)
(10.8757 1.04103 0)
(11.0246 1.07555 0)
(11.0478 1.07929 0)
(11.1731 1.09053 0)
(11.1923 1.09098 0)
(11.2926 1.08519 0)
(11.3076 1.08326 0)
(11.3832 1.06549 0)
(11.3942 1.0619 0)
(11.4465 1.03595 0)
(11.4538 1.03121 0)
(11.485 0.999758 0)
(11.4889 0.994276 0)
(11.5019 0.959359 0)
(11.5028 0.953386 0)
(11.4994 0.916224 0)
(11.4978 0.910006 0)
(11.4817 0.871956 0)
(11.4778 0.865523 0)
(11.4488 0.826314 0)
(11.4436 0.819969 0)
(11.4089 0.781803 0)
(11.4016 0.775092 0)
(11.3529 0.733844 0)
(11.346 0.727749 0)
(11.3053 0.691713 0)
(11.2943 0.683988 0)
(11.2135 0.634859 0)
(11.2019 0.629419 0)
(10.0132 0.148726 0)
(10.017 0.163092 0)
(10.0677 0.325241 0)
(10.0789 0.353825 0)
(10.1743 0.523182 0)
(10.1917 0.547283 0)
(10.3204 0.681789 0)
(10.3418 0.700415 0)
(10.4859 0.799687 0)
(10.5087 0.813215 0)
(10.6533 0.882308 0)
(10.6759 0.891594 0)
(10.813 0.936107 0)
(10.8343 0.941957 0)
(10.9598 0.966841 0)
(10.9793 0.96995 0)
(11.0906 0.97959 0)
(11.1079 0.980571 0)
(11.2037 0.978681 0)
(11.2187 0.978049 0)
(11.2987 0.967599 0)
(11.3114 0.965747 0)
(11.376 0.948918 0)
(11.3863 0.946161 0)
(11.4367 0.92472 0)
(11.4448 0.921256 0)
(11.4813 0.89621 0)
(11.4875 0.892262 0)
(11.5127 0.864964 0)
(11.5169 0.860525 0)
(11.5296 0.830515 0)
(11.5323 0.825902 0)
(11.5385 0.795646 0)
(11.5392 0.790381 0)
(11.5307 0.755305 0)
(11.531 0.750358 0)
(11.5263 0.719542 0)
(11.5233 0.712845 0)
(11.4769 0.666744 0)
(11.4681 0.661425 0)
(10.0129 0.143474 0)
(10.0167 0.158251 0)
(10.0641 0.313063 0)
(10.0754 0.341647 0)
(10.165 0.505252 0)
(10.1823 0.529353 0)
(10.3042 0.660675 0)
(10.3256 0.679301 0)
(10.4632 0.777356 0)
(10.4861 0.790884 0)
(10.6257 0.860106 0)
(10.6482 0.869393 0)
(10.782 0.914993 0)
(10.8033 0.920842 0)
(10.927 0.947459 0)
(10.9464 0.950569 0)
(11.0576 0.962315 0)
(11.0749 0.963297 0)
(11.172 0.963684 0)
(11.1871 0.963052 0)
(11.2697 0.954921 0)
(11.2824 0.95307 0)
(11.3507 0.938512 0)
(11.3611 0.935755 0)
(11.416 0.916492 0)
(11.4241 0.913027 0)
(11.466 0.890009 0)
(11.4722 0.886062 0)
(11.5031 0.860641 0)
(11.5072 0.856202 0)
(11.5261 0.827867 0)
(11.5289 0.823255 0)
(11.541 0.794497 0)
(11.5417 0.789233 0)
(11.54 0.755493 0)
(11.5403 0.750546 0)
(11.5403 0.720725 0)
(11.5373 0.714028 0)
(11.5022 0.669673 0)
(11.4956 0.664602 0)
(10.0093 0.11566 0)
(10.012 0.127017 0)
(10.0468 0.254468 0)
(10.0547 0.277299 0)
(10.1214 0.414869 0)
(10.1338 0.434906 0)
(10.2271 0.550034 0)
(10.243 0.566379 0)
(10.3524 0.656695 0)
(10.3701 0.669311 0)
(10.4855 0.736906 0)
(10.5037 0.746233 0)
(10.6186 0.79452 0)
(10.6365 0.801084 0)
(10.7472 0.833373 0)
(10.7644 0.837659 0)
(10.8687 0.856984 0)
(10.8849 0.859433 0)
(10.9812 0.868471 0)
(10.9962 0.869471 0)
(11.0836 0.870492 0)
(11.0972 0.870348 0)
(11.1751 0.865059 0)
(11.1873 0.864026 0)
(11.2561 0.853893 0)
(11.2669 0.852125 0)
(11.3261 0.837895 0)
(11.3356 0.835582 0)
(11.3865 0.8185 0)
(11.3945 0.81562 0)
(11.4357 0.795061 0)
(11.4426 0.79189 0)
(11.4779 0.770311 0)
(11.4833 0.766435 0)
(11.5066 0.739384 0)
(11.5112 0.735621 0)
(11.5338 0.711737 0)
(11.536 0.706422 0)
(11.5292 0.66866 0)
(11.5273 0.66464 0)
(10.0091 0.112048 0)
(10.0118 0.123687 0)
(10.0447 0.245955 0)
(10.0526 0.268786 0)
(10.1157 0.4019 0)
(10.1281 0.421938 0)
(10.2169 0.534174 0)
(10.2328 0.550519 0)
(10.3375 0.639314 0)
(10.3552 0.651929 0)
(10.4663 0.718985 0)
(10.4845 0.728312 0)
(10.5958 0.776755 0)
(10.6137 0.783318 0)
(10.7216 0.816261 0)
(10.7388 0.820548 0)
(10.8411 0.840862 0)
(10.8573 0.843312 0)
(10.9525 0.853546 0)
(10.9675 0.854546 0)
(11.0545 0.856881 0)
(11.0681 0.856737 0)
(11.1465 0.85282 0)
(11.1587 0.851787 0)
(11.2286 0.843039 0)
(11.2394 0.841272 0)
(11.3004 0.82842 0)
(11.3099 0.826107 0)
(11.363 0.810353 0)
(11.3711 0.807474 0)
(11.4151 0.788231 0)
(11.422 0.78506 0)
(11.4601 0.764653 0)
(11.4655 0.760777 0)
(11.4926 0.735059 0)
(11.4972 0.731296 0)
(11.5222 0.708258 0)
(11.5244 0.702943 0)
(11.5222 0.666825 0)
(11.5197 0.662649 0)
(10.0068 0.0923691 0)
(10.0088 0.101544 0)
(10.034 0.204002 0)
(10.0398 0.22257 0)
(10.0885 0.335574 0)
(10.0977 0.352328 0)
(10.1675 0.450486 0)
(10.1796 0.4647 0)
(10.2639 0.545212 0)
(10.2778 0.55668 0)
(10.3696 0.619947 0)
(10.3843 0.628849 0)
(10.4785 0.676768 0)
(10.4933 0.683426 0)
(10.5869 0.71819 0)
(10.6016 0.722943 0)
(10.6926 0.746704 0)
(10.7068 0.749872 0)
(10.7939 0.764611 0)
(10.8075 0.76649 0)
(10.8896 0.773978 0)
(10.9024 0.774812 0)
(10.979 0.776419 0)
(10.991 0.776421 0)
(11.0619 0.773383 0)
(11.073 0.772683 0)
(11.1378 0.765612 0)
(11.148 0.764371 0)
(11.2071 0.754352 0)
(11.2163 0.752558 0)
(11.2687 0.739042 0)
(11.2771 0.736918 0)
(11.3247 0.722027 0)
(11.332 0.719266 0)
(11.371 0.699363 0)
(11.3774 0.696597 0)
(11.4132 0.678802 0)
(11.418 0.674802 0)
(11.4341 0.646046 0)
(11.436 0.643227 0)
(10.0067 0.0897617 0)
(10.0086 0.09914 0)
(10.0327 0.19781 0)
(10.0385 0.216378 0)
(10.085 0.32593 0)
(10.0942 0.342684 0)
(10.1609 0.438346 0)
(10.173 0.45256 0)
(10.2539 0.53153 0)
(10.2678 0.542997 0)
(10.3563 0.605469 0)
(10.371 0.614372 0)
(10.4623 0.662043 0)
(10.4771 0.668702 0)
(10.5681 0.70362 0)
(10.5828 0.708373 0)
(10.6717 0.732572 0)
(10.6859 0.73574 0)
(10.7712 0.751106 0)
(10.7848 0.752985 0)
(10.8656 0.761218 0)
(10.8784 0.762052 0)
(10.9542 0.764481 0)
(10.9661 0.764483 0)
(11.0366 0.762306 0)
(11.0477 0.761606 0)
(11.1124 0.755436 0)
(11.1226 0.754194 0)
(11.1821 0.745059 0)
(11.1913 0.743266 0)
(11.2445 0.730707 0)
(11.2528 0.728583 0)
(11.3012 0.71453 0)
(11.3085 0.71177 0)
(11.349 0.692995 0)
(11.3555 0.690228 0)
(11.3921 0.673087 0)
(11.3969 0.669087 0)
(11.4134 0.64159 0)
(11.4135 0.638392 0)
(10.0052 0.0752293 0)
(10.0067 0.0827647 0)
(10.0258 0.166597 0)
(10.0302 0.181915 0)
(10.0672 0.275734 0)
(10.0743 0.289825 0)
(10.128 0.373523 0)
(10.1375 0.38583 0)
(10.2039 0.456849 0)
(10.215 0.467127 0)
(10.289 0.525055 0)
(10.301 0.533341 0)
(10.3787 0.57908 0)
(10.3911 0.585551 0)
(10.4699 0.620477 0)
(10.4823 0.625356 0)
(10.5606 0.650957 0)
(10.5728 0.654472 0)
(10.6492 0.672197 0)
(10.6612 0.67457 0)
(10.7348 0.685786 0)
(10.7463 0.68721 0)
(10.8165 0.693028 0)
(10.8275 0.693679 0)
(10.894 0.695139 0)
(10.9044 0.695132 0)
(10.9669 0.692788 0)
(10.9766 0.692259 0)
(11.0352 0.687031 0)
(11.0443 0.685993 0)
(11.0982 0.677544 0)
(11.1067 0.676169 0)
(11.1567 0.666178 0)
(11.1644 0.664269 0)
(11.2084 0.65015 0)
(11.2153 0.648169 0)
(11.2552 0.635259 0)
(11.2609 0.63236 0)
(11.2871 0.61155 0)
(11.2905 0.609676 0)
(10.0051 0.0732694 0)
(10.0066 0.0809582 0)
(10.0249 0.161915 0)
(10.0293 0.177233 0)
(10.0648 0.26833 0)
(10.0719 0.28242 0)
(10.1235 0.363996 0)
(10.133 0.376303 0)
(10.197 0.445866 0)
(10.2081 0.456143 0)
(10.2797 0.513191 0)
(10.2917 0.521477 0)
(10.3671 0.566785 0)
(10.3795 0.573255 0)
(10.4562 0.60809 0)
(10.4686 0.612969 0)
(10.545 0.638726 0)
(10.5572 0.642241 0)
(10.632 0.660297 0)
(10.6439 0.66267 0)
(10.7162 0.674332 0)
(10.7276 0.675756 0)
(10.7967 0.682098 0)
(10.8077 0.682748 0)
(10.8733 0.684775 0)
(10.8837 0.684768 0)
(10.9455 0.683041 0)
(10.9552 0.682513 0)
(11.0133 0.677898 0)
(11.0224 0.67686 0)
(11.076 0.669115 0)
(11.0845 0.66774 0)
(11.1344 0.658363 0)
(11.1421 0.656454 0)
(11.1863 0.643237 0)
(11.1933 0.641256 0)
(11.2331 0.628856 0)
(11.2389 0.625957 0)
(11.2633 0.605993 0)
(11.2646 0.603647 0)
(10.0041 0.0621207 0)
(10.0053 0.068381 0)
(10.0202 0.137844 0)
(10.0237 0.150609 0)
(10.0527 0.229148 0)
(10.0583 0.241056 0)
(10.1009 0.31251 0)
(10.1085 0.323145 0)
(10.162 0.385399 0)
(10.171 0.394529 0)
(10.2318 0.446866 0)
(10.2417 0.454457 0)
(10.3067 0.497178 0)
(10.3171 0.503313 0)
(10.3841 0.53721 0)
(10.3948 0.542028 0)
(10.4623 0.568085 0)
(10.473 0.571741 0)
(10.5398 0.590988 0)
(10.5504 0.593643 0)
(10.6157 0.607107 0)
(10.6259 0.608911 0)
(10.6891 0.617477 0)
(10.6989 0.618569 0)
(10.7596 0.623093 0)
(10.769 0.623577 0)
(10.8267 0.624572 0)
(10.8357 0.624561 0)
(10.8905 0.622789 0)
(10.899 0.622313 0)
(10.9502 0.617663 0)
(10.9582 0.616857 0)
(11.0063 0.610591 0)
(11.0137 0.609347 0)
(11.0574 0.599836 0)
(11.0642 0.598481 0)
(11.1035 0.589478 0)
(11.1093 0.587464 0)
(11.138 0.573106 0)
(11.1417 0.571931 0)
(10.004 0.0605935 0)
(10.0052 0.0669733 0)
(10.0196 0.134179 0)
(10.0231 0.146944 0)
(10.051 0.223291 0)
(10.0567 0.2352 0)
(10.0978 0.304854 0)
(10.1053 0.315488 0)
(10.1571 0.376412 0)
(10.1661 0.385542 0)
(10.2251 0.436989 0)
(10.235 0.44458 0)
(10.2982 0.486779 0)
(10.3087 0.492915 0)
(10.374 0.526581 0)
(10.3847 0.531399 0)
(10.4507 0.557449 0)
(10.4614 0.561104 0)
(10.5268 0.580509 0)
(10.5373 0.583164 0)
(10.6015 0.596901 0)
(10.6117 0.598704 0)
(10.6737 0.607627 0)
(10.6836 0.608719 0)
(10.7433 0.613649 0)
(10.7527 0.614134 0)
(10.8096 0.615588 0)
(10.8186 0.615577 0)
(10.8727 0.614271 0)
(10.8811 0.613796 0)
(10.9319 0.609696 0)
(10.9398 0.60889 0)
(10.9875 0.603113 0)
(10.9949 0.601868 0)
(11.0383 0.59308 0)
(11.045 0.591726 0)
(11.0841 0.583148 0)
(11.0898 0.581135 0)
(11.116 0.5673 0)
(11.1179 0.565632 0)
(10.0033 0.0517523 0)
(10.0043 0.0569909 0)
(10.0163 0.115016 0)
(10.0191 0.125726 0)
(10.0425 0.191837 0)
(10.0471 0.201935 0)
(10.0818 0.262993 0)
(10.088 0.272169 0)
(10.1321 0.326499 0)
(10.1396 0.334556 0)
(10.1904 0.381387 0)
(10.1988 0.388261 0)
(10.254 0.427567 0)
(10.2629 0.433285 0)
(10.3206 0.465466 0)
(10.3299 0.470107 0)
(10.3888 0.495781 0)
(10.3982 0.499446 0)
(10.4571 0.519319 0)
(10.4665 0.522123 0)
(10.5247 0.536945 0)
(10.5339 0.538998 0)
(10.5906 0.549453 0)
(10.5996 0.550866 0)
(10.6545 0.557637 0)
(10.6632 0.558496 0)
(10.7159 0.562046 0)
(10.7241 0.562444 0)
(10.7745 0.563387 0)
(10.7823 0.563366 0)
(10.8299 0.561764 0)
(10.8373 0.561428 0)
(10.8822 0.558202 0)
(10.8891 0.557504 0)
(10.9304 0.551761 0)
(10.9367 0.550929 0)
(10.974 0.545172 0)
(10.9794 0.54388 0)
(11.0072 0.534669 0)
(11.0106 0.534015 0)
(10.0033 0.0505241 0)
(10.0042 0.0558588 0)
(10.0158 0.112059 0)
(10.0187 0.122768 0)
(10.0414 0.187077 0)
(10.046 0.197175 0)
(10.0796 0.256697 0)
(10.0858 0.265873 0)
(10.1286 0.319004 0)
(10.1361 0.327061 0)
(10.1855 0.373031 0)
(10.1939 0.379905 0)
(10.2477 0.418647 0)
(10.2567 0.424365 0)
(10.3131 0.456233 0)
(10.3224 0.460873 0)
(10.38 0.486434 0)
(10.3894 0.490099 0)
(10.4473 0.510016 0)
(10.4566 0.51282 0)
(10.5138 0.527802 0)
(10.523 0.529855 0)
(10.5788 0.54056 0)
(10.5877 0.541972 0)
(10.6419 0.549051 0)
(10.6505 0.54991 0)
(10.7025 0.553825 0)
(10.7107 0.554223 0)
(10.7604 0.55555 0)
(10.7682 0.555529 0)
(10.8152 0.554383 0)
(10.8226 0.554046 0)
(10.8669 0.55124 0)
(10.8738 0.550542 0)
(10.9147 0.545397 0)
(10.921 0.544565 0)
(10.958 0.539186 0)
(10.9634 0.537894 0)
(10.9887 0.528989 0)
(10.9906 0.527853 0)
(10.0028 0.0433018 0)
(10.0035 0.0476991 0)
(10.0135 0.0963617 0)
(10.0159 0.105371 0)
(10.0353 0.161155 0)
(10.0392 0.169726 0)
(10.0681 0.221871 0)
(10.0734 0.229771 0)
(10.1105 0.276985 0)
(10.1169 0.284053 0)
(10.1602 0.325622 0)
(10.1674 0.331788 0)
(10.215 0.367524 0)
(10.2228 0.372783 0)
(10.2732 0.402845 0)
(10.2813 0.407236 0)
(10.3334 0.431983 0)
(10.3417 0.435569 0)
(10.3943 0.455467 0)
(10.4027 0.458326 0)
(10.4551 0.473902 0)
(10.4633 0.476115 0)
(10.5148 0.487884 0)
(10.5229 0.489533 0)
(10.5731 0.49802 0)
(10.5809 0.499177 0)
(10.6293 0.504782 0)
(10.6369 0.50552 0)
(10.6832 0.508728 0)
(10.6905 0.509092 0)
(10.7345 0.51007 0)
(10.7414 0.51014 0)
(10.783 0.509541 0)
(10.7894 0.509313 0)
(10.828 0.506762 0)
(10.8339 0.506383 0)
(10.8689 0.503435 0)
(10.874 0.502748 0)
(10.8996 0.497721 0)
(10.9027 0.497473 0)
(10.0027 0.0422848 0)
(10.0035 0.0467617 0)
(10.0132 0.0939071 0)
(10.0155 0.102917 0)
(10.0345 0.157184 0)
(10.0383 0.165754 0)
(10.0665 0.216574 0)
(10.0718 0.224474 0)
(10.108 0.270609 0)
(10.1143 0.277678 0)
(10.1566 0.318429 0)
(10.1638 0.324594 0)
(10.2104 0.359756 0)
(10.2182 0.365015 0)
(10.2675 0.394716 0)
(10.2757 0.399107 0)
(10.3267 0.423672 0)
(10.3351 0.427258 0)
(10.3868 0.447121 0)
(10.3952 0.44998 0)
(10.4467 0.465636 0)
(10.455 0.467849 0)
(10.5057 0.47979 0)
(10.5138 0.481439 0)
(10.5632 0.490165 0)
(10.5711 0.491321 0)
(10.6188 0.497225 0)
(10.6264 0.497963 0)
(10.6722 0.501499 0)
(10.6794 0.501863 0)
(10.7229 0.503233 0)
(10.7298 0.503302 0)
(10.771 0.503078 0)
(10.7774 0.50285 0)
(10.8155 0.500809 0)
(10.8214 0.50043 0)
(10.8561 0.497826 0)
(10.8612 0.49714 0)
(10.8848 0.49228 0)
(10.8866 0.49157 0)
(10.0023 0.0362137 0)
(10.003 0.0398996 0)
(10.0115 0.0806848 0)
(10.0135 0.0882537 0)
(10.0302 0.135255 0)
(10.0335 0.142511 0)
(10.0583 0.186908 0)
(10.0628 0.19368 0)
(10.0948 0.234491 0)
(10.1004 0.240652 0)
(10.1381 0.277265 0)
(10.1444 0.282747 0)
(10.1862 0.31491 0)
(10.1931 0.319692 0)
(10.2378 0.347418 0)
(10.245 0.351516 0)
(10.2916 0.374988 0)
(10.2991 0.378436 0)
(10.3466 0.397944 0)
(10.3542 0.400793 0)
(10.4018 0.416691 0)
(10.4094 0.418997 0)
(10.4565 0.431658 0)
(10.4639 0.433481 0)
(10.5101 0.443293 0)
(10.5173 0.444689 0)
(10.562 0.451985 0)
(10.5691 0.45301 0)
(10.6121 0.458157 0)
(10.6188 0.458855 0)
(10.6598 0.462074 0)
(10.6662 0.462504 0)
(10.7051 0.464236 0)
(10.7111 0.464423 0)
(10.7472 0.464646 0)
(10.7527 0.464669 0)
(10.7857 0.464215 0)
(10.7904 0.46405 0)
(10.8139 0.46253 0)
(10.8167 0.462617 0)
(10.0023 0.0353471 0)
(10.003 0.0391007 0)
(10.0113 0.0785889 0)
(10.0133 0.0861577 0)
(10.0296 0.131852 0)
(10.0329 0.139107 0)
(10.0571 0.182341 0)
(10.0616 0.189113 0)
(10.093 0.22895 0)
(10.0985 0.235111 0)
(10.1354 0.270956 0)
(10.1418 0.276437 0)
(10.1828 0.308033 0)
(10.1897 0.312815 0)
(10.2336 0.340157 0)
(10.2408 0.344254 0)
(10.2867 0.367502 0)
(10.2942 0.37095 0)
(10.3409 0.390369 0)
(10.3485 0.393218 0)
(10.3954 0.409139 0)
(10.403 0.411445 0)
(10.4495 0.42422 0)
(10.4569 0.426043 0)
(10.5025 0.43604 0)
(10.5098 0.437436 0)
(10.554 0.444978 0)
(10.561 0.446003 0)
(10.6035 0.451434 0)
(10.6103 0.452133 0)
(10.6508 0.455694 0)
(10.6572 0.456123 0)
(10.6957 0.458194 0)
(10.7017 0.45838 0)
(10.7374 0.459049 0)
(10.743 0.459071 0)
(10.7757 0.458932 0)
(10.7804 0.458768 0)
(10.8022 0.457325 0)
(10.804 0.456971 0)
(10.002 0.0300923 0)
(10.0026 0.0331593 0)
(10.0101 0.0671288 0)
(10.0119 0.0734434 0)
(10.0265 0.112791 0)
(10.0294 0.118891 0)
(10.0513 0.156434 0)
(10.0553 0.162196 0)
(10.0836 0.197205 0)
(10.0885 0.202531 0)
(10.1221 0.234502 0)
(10.1277 0.239332 0)
(10.1652 0.268002 0)
(10.1714 0.272309 0)
(10.2117 0.297606 0)
(10.2183 0.301388 0)
(10.2606 0.323378 0)
(10.2674 0.32665 0)
(10.3108 0.34549 0)
(10.3178 0.348283 0)
(10.3616 0.364196 0)
(10.3686 0.366546 0)
(10.4122 0.379785 0)
(10.4191 0.381733 0)
(10.462 0.392572 0)
(10.4687 0.39416 0)
(10.5104 0.402859 0)
(10.517 0.404128 0)
(10.5573 0.410953 0)
(10.5636 0.411944 0)
(10.6021 0.417132 0)
(10.6081 0.417882 0)
(10.6448 0.421703 0)
(10.6504 0.422258 0)
(10.6844 0.424932 0)
(10.6897 0.425313 0)
(10.721 0.427094 0)
(10.7254 0.427389 0)
(10.7471 0.42889 0)
(10.7495 0.429265 0)
(10.002 0.0293309 0)
(10.0026 0.0324574 0)
(10.01 0.0652857 0)
(10.0117 0.0716003 0)
(10.0261 0.109793 0)
(10.029 0.115892 0)
(10.0505 0.152395 0)
(10.0545 0.158157 0)
(10.0823 0.192278 0)
(10.0873 0.197604 0)
(10.1202 0.228856 0)
(10.1259 0.233686 0)
(10.1627 0.261806 0)
(10.1689 0.266112 0)
(10.2086 0.291018 0)
(10.2152 0.294799 0)
(10.257 0.316541 0)
(10.2638 0.319813 0)
(10.3066 0.33853 0)
(10.3136 0.341323 0)
(10.3569 0.357218 0)
(10.3639 0.359568 0)
(10.4069 0.372879 0)
(10.4138 0.374827 0)
(10.4563 0.38581 0)
(10.463 0.387398 0)
(10.5043 0.396303 0)
(10.5109 0.397572 0)
(10.5508 0.404645 0)
(10.5571 0.405635 0)
(10.5952 0.411125 0)
(10.6012 0.411875 0)
(10.6376 0.416 0)
(10.6432 0.416556 0)
(10.6769 0.419622 0)
(10.6822 0.420003 0)
(10.7133 0.422071 0)
(10.7177 0.422367 0)
(10.7381 0.42388 0)
(10.7397 0.42383 0)
(10.0019 0.0246341 0)
(10.0024 0.0271471 0)
(10.0092 0.0550439 0)
(10.0108 0.0602364 0)
(10.0241 0.0927485 0)
(10.0268 0.0978085 0)
(10.0466 0.12918 0)
(10.0503 0.134024 0)
(10.076 0.163727 0)
(10.0805 0.168281 0)
(10.111 0.195913 0)
(10.1162 0.200125 0)
(10.1504 0.225433 0)
(10.1561 0.229273 0)
(10.1932 0.252138 0)
(10.1993 0.255595 0)
(10.2384 0.276 0)
(10.2447 0.279076 0)
(10.285 0.297081 0)
(10.2915 0.299789 0)
(10.3323 0.31551 0)
(10.3388 0.317871 0)
(10.3795 0.331464 0)
(10.386 0.333502 0)
(10.4262 0.345142 0)
(10.4326 0.346887 0)
(10.4719 0.356763 0)
(10.4781 0.358241 0)
(10.5161 0.36653 0)
(10.522 0.367778 0)
(10.5585 0.374709 0)
(10.5642 0.375745 0)
(10.599 0.381442 0)
(10.6044 0.382326 0)
(10.6367 0.38718 0)
(10.6417 0.387882 0)
(10.6717 0.39167 0)
(10.676 0.392372 0)
(10.6961 0.396513 0)
(10.6983 0.397143 0)
(10.0018 0.0239397 0)
(10.0024 0.0265071 0)
(10.0091 0.0533674 0)
(10.0107 0.0585599 0)
(10.0239 0.0900261 0)
(10.0265 0.095086 0)
(10.0461 0.125513 0)
(10.0498 0.130357 0)
(10.0752 0.159246 0)
(10.0797 0.163799 0)
(10.1098 0.19076 0)
(10.115 0.194972 0)
(10.1488 0.219756 0)
(10.1545 0.223596 0)
(10.1912 0.246076 0)
(10.1972 0.249533 0)
(10.2359 0.269682 0)
(10.2422 0.272758 0)
(10.282 0.290621 0)
(10.2885 0.293329 0)
(10.3289 0.309009 0)
(10.3354 0.311369 0)
(10.3758 0.325006 0)
(10.3823 0.327044 0)
(10.4221 0.338798 0)
(10.4285 0.340543 0)
(10.4674 0.350594 0)
(10.4736 0.352072 0)
(10.5113 0.360579 0)
(10.5173 0.361826 0)
(10.5534 0.369025 0)
(10.5591 0.370061 0)
(10.5936 0.376033 0)
(10.599 0.376918 0)
(10.6311 0.382122 0)
(10.6361 0.382824 0)
(10.6659 0.386871 0)
(10.6702 0.387573 0)
(10.6893 0.391671 0)
(10.6909 0.39189 0)
(10.0018 0.0195508 0)
(10.0023 0.0215517 0)
(10.0087 0.0438398 0)
(10.0103 0.0479995 0)
(10.0228 0.0742455 0)
(10.0253 0.0783547 0)
(10.044 0.104082 0)
(10.0474 0.108085 0)
(10.0715 0.13291 0)
(10.0757 0.13675 0)
(10.1043 0.160346 0)
(10.1091 0.163979 0)
(10.1412 0.18611 0)
(10.1466 0.189506 0)
(10.1813 0.21002 0)
(10.187 0.21316 0)
(10.2237 0.231979 0)
(10.2297 0.234854 0)
(10.2675 0.251962 0)
(10.2737 0.254572 0)
(10.3122 0.269998 0)
(10.3183 0.27235 0)
(10.3568 0.286165 0)
(10.363 0.288271 0)
(10.4011 0.300563 0)
(10.4071 0.30244 0)
(10.4444 0.313331 0)
(10.4503 0.314993 0)
(10.4865 0.324578 0)
(10.4922 0.326054 0)
(10.5268 0.334544 0)
(10.5323 0.335837 0)
(10.5656 0.343227 0)
(10.5707 0.344408 0)
(10.6016 0.351218 0)
(10.6064 0.352208 0)
(10.6353 0.357796 0)
(10.6394 0.358856 0)
(10.6583 0.365317 0)
(10.6603 0.366169 0)
(10.0018 0.0188769 0)
(10.0023 0.0209305 0)
(10.0087 0.0422306 0)
(10.0103 0.0463903 0)
(10.0228 0.0716592 0)
(10.0252 0.0757684 0)
(10.0438 0.100623 0)
(10.0472 0.104626 0)
(10.0711 0.128699 0)
(10.0753 0.132539 0)
(10.1037 0.155513 0)
(10.1085 0.159147 0)
(10.1403 0.180786 0)
(10.1457 0.184183 0)
(10.1801 0.204333 0)
(10.1858 0.207473 0)
(10.2222 0.226046 0)
(10.2281 0.228921 0)
(10.2657 0.245887 0)
(10.2718 0.248497 0)
(10.31 0.263875 0)
(10.3162 0.266228 0)
(10.3544 0.280075 0)
(10.3605 0.282181 0)
(10.3983 0.294571 0)
(10.4043 0.296448 0)
(10.4413 0.307496 0)
(10.4472 0.309157 0)
(10.4832 0.31894 0)
(10.4888 0.320416 0)
(10.5233 0.329149 0)
(10.5287 0.330441 0)
(10.5618 0.338083 0)
(10.5669 0.339264 0)
(10.5976 0.34639 0)
(10.6024 0.34738 0)
(10.6312 0.353207 0)
(10.6352 0.354267 0)
(10.6534 0.360647 0)
(10.655 0.361102 0)
(10.0018 0.0144482 0)
(10.0023 0.0159432 0)
(10.0089 0.0327266 0)
(10.0104 0.0358837 0)
(10.0229 0.056109 0)
(10.0253 0.0593193 0)
(10.0435 0.0797122 0)
(10.0468 0.0829316 0)
(10.0701 0.103178 0)
(10.0742 0.106358 0)
(10.1016 0.12617 0)
(10.1063 0.12927 0)
(10.1369 0.148415 0)
(10.1421 0.151401 0)
(10.1752 0.169695 0)
(10.1807 0.172542 0)
(10.2156 0.189852 0)
(10.2213 0.192541 0)
(10.2574 0.208782 0)
(10.2633 0.211301 0)
(10.3 0.226426 0)
(10.3059 0.22877 0)
(10.3427 0.242772 0)
(10.3485 0.244941 0)
(10.3849 0.257829 0)
(10.3907 0.259829 0)
(10.4263 0.27166 0)
(10.432 0.273492 0)
(10.4666 0.284284 0)
(10.4721 0.285971 0)
(10.5053 0.295904 0)
(10.5106 0.297433 0)
(10.5425 0.306393 0)
(10.5475 0.307845 0)
(10.5772 0.316452 0)
(10.5819 0.317709 0)
(10.6098 0.324967 0)
(10.6137 0.326356 0)
(10.6316 0.33492 0)
(10.6334 0.335938 0)
(10.0018 0.013728 0)
(10.0023 0.0152794 0)
(10.0089 0.0310383 0)
(10.0105 0.0341953 0)