/*--------------------------------*- C++ -*----------------------------------*\
| =========                 |                                                 |
| \\      /  F ield         | OpenFOAM: The Open Source CFD Toolbox           |
|  \\    /   O peration     | Version:  v1906                                 |
|   \\  /    A nd           | Web:      www.OpenFOAM.com                      |
|    \\/     M anipulation  |                                                 |
\*---------------------------------------------------------------------------*/
FoamFile
{
    version     2.0;
    format      ascii;
    class       volScalarField;
    location    "0.5";
    object      p;
}
// * * * * * * * * * * * * * * * * * * * * * * * * * * * * * * * * * * * * * //

dimensions      [0 2 -2 0 0 0 0];


internalField   nonuniform List<scalar> 
800
(
6.7952e-07
0.00935136
0.0222256
0.0350966
0.0488767
0.0634912
0.0792369
0.0964707
0.115701
0.137641
0.163292
0.194065
0.231946
0.279871
0.3425
0.42436
0.527365
0.696386
1.07693
1.25835
-0.00632901
0.00136119
0.0133205
0.0254267
0.0384391
0.0521643
0.0668267
0.0826894
0.100128
0.119647
0.141906
0.167743
0.198138
0.234142
0.276918
0.325446
0.36919
0.402614
0.449606
0.278705
-0.0180853
-0.0129493
-0.00253021
0.00827869
0.0199353
0.0321061
0.0448741
0.0583378
0.0726354
0.0879045
0.104221
0.121477
0.13913
0.155735
0.16836
0.170673
0.148538
0.084537
-0.0341784
-0.281116
-0.0316544
-0.0285242
-0.0195876
-0.0101141
8.48865e-05
0.0105643
0.0212502
0.0320594
0.0428685
0.0534263
0.0632274
0.0713143
0.0759626
0.0742402
0.0615625
0.0310187
-0.0272586
-0.123167
-0.26542
-0.473059
-0.0469725
-0.0452587
-0.0377182
-0.0296049
-0.0209589
-0.0123145
-0.00390598
0.00399498
0.0110033
0.0165061
0.0195155
0.0184786
0.0110557
-0.00607203
-0.0372259
-0.0875456
-0.162263
-0.264753
-0.3962
-0.556598
-0.0645651
-0.0638613
-0.0576971
-0.0510165
-0.0440675
-0.0374554
-0.0315705
-0.0268655
-0.02396
-0.0237544
-0.0275537
-0.0371825
-0.0550485
-0.0840756
-0.127416
-0.187933
-0.267361
-0.365193
-0.478365
-0.601192
-0.0846823
-0.0846548
-0.0798498
-0.0746732
-0.0695569
-0.065157
-0.0619988
-0.0606867
-0.0620124
-0.0670445
-0.0771947
-0.0942329
-0.120203
-0.15719
-0.206928
-0.270284
-0.346722
-0.433891
-0.527709
-0.622785
-0.107448
-0.107802
-0.104318
-0.100699
-0.097518
-0.0954595
-0.0951449
-0.0972779
-0.102733
-0.112606
-0.128207
-0.150999
-0.182416
-0.223598
-0.275041
-0.336284
-0.405702
-0.480542
-0.557259
-0.632064
-0.132968
-0.133465
-0.131243
-0.129213
-0.128031
-0.128377
-0.130917
-0.136387
-0.145643
-0.15967
-0.179528
-0.206229
-0.240551
-0.282818
-0.332686
-0.389024
-0.449947
-0.513019
-0.57561
-0.635309
-0.161329
-0.16179
-0.160756
-0.160323
-0.16115
-0.163882
-0.169169
-0.1777
-0.190226
-0.207519
-0.230301
-0.259115
-0.294174
-0.33523
-0.381491
-0.431638
-0.48396
-0.536572
-0.587675
-0.635807
-0.192576
-0.192882
-0.192941
-0.194079
-0.196866
-0.201874
-0.209675
-0.220847
-0.235958
-0.255521
-0.279909
-0.309257
-0.343376
-0.381695
-0.423277
-0.466897
-0.511181
-0.554783
-0.596537
-0.63558
-0.226697
-0.226777
-0.227823
-0.230464
-0.235099
-0.242183
-0.252158
-0.265435
-0.282369
-0.303205
-0.328013
-0.356632
-0.388635
-0.423336
-0.459841
-0.49714
-0.534219
-0.570164
-0.60425
-0.635982
-0.263615
-0.263434
-0.265346
-0.269387
-0.275704
-0.284589
-0.296319
-0.311111
-0.329103
-0.350303
-0.374558
-0.401527
-0.430689
-0.461375
-0.49283
-0.524287
-0.555039
-0.584497
-0.612227
-0.637957
-0.303164
-0.302715
-0.305372
-0.310686
-0.318478
-0.32885
-0.341886
-0.35761
-0.375964
-0.396776
-0.419753
-0.444476
-0.470428
-0.497034
-0.523708
-0.549906
-0.575163
-0.599117
-0.621523
-0.642249
-0.34507
-0.344366
-0.347673
-0.354135
-0.363199
-0.374743
-0.388664
-0.404805
-0.422952
-0.442817
-0.464039
-0.486196
-0.508833
-0.531496
-0.553764
-0.575275
-0.595746
-0.614977
-0.632849
-0.649316
-0.388897
-0.387965
-0.391883
-0.39943
-0.409628
-0.422111
-0.436595
-0.45277
-0.470312
-0.488874
-0.508089
-0.527585
-0.547003
-0.566016
-0.584347
-0.601775
-0.618145
-0.633362
-0.647385
-0.660219
-0.433982
-0.43284
-0.437408
-0.446081
-0.457407
-0.470758
-0.485683
-0.501746
-0.518541
-0.53569
-0.552845
-0.569699
-0.585992
-0.601522
-0.616142
-0.629764
-0.642346
-0.653885
-0.664408
-0.673963
-0.479503
-0.478373
-0.483834
-0.493818
-0.506356
-0.520579
-0.535918
-0.55188
-0.568036
-0.584032
-0.59957
-0.614412
-0.628375
-0.641333
-0.65321
-0.663977
-0.673645
-0.682256
-0.689874
-0.696584
-0.524489
-0.524825
-0.532525
-0.544791
-0.559175
-0.574589
-0.590365
-0.605956
-0.620937
-0.635004
-0.647964
-0.659713
-0.670226
-0.679531
-0.687701
-0.694831
-0.701028
-0.706403
-0.711058
-0.715085
-0.562794
-0.566783
-0.578814
-0.595369
-0.613836
-0.633058
-0.652318
-0.670994
-0.688565
-0.704639
-0.718953
-0.731358
-0.741815
-0.75037
-0.757136
-0.762274
-0.765968
-0.768416
-0.769826
-0.770403
-1.19006
-2.29643
-2.32441
-2.11761
-1.91988
-1.75795
-1.62969
-1.52787
-1.44506
-1.37596
-1.31707
-1.26607
-1.22133
-1.18168
-1.14634
-1.1148
-1.08702
-1.06306
-1.04521
-1.03208
-0.806085
-1.47577
-1.69441
-1.7255
-1.68646
-1.61761
-1.54194
-1.47021
-1.40543
-1.34774
-1.29645
-1.25073
-1.2098
-1.17301
-1.13989
-1.11016
-1.08392
-1.06127
-1.04448
-1.03186
-0.740996
-1.11904
-1.34319
-1.45271
-1.48967
-1.48123
-1.44859
-1.40571
-1.36
-1.31506
-1.2725
-1.23291
-1.19642
-1.16294
-1.13238
-1.1047
-1.08016
-1.05893
-1.04331
-1.03135
-0.735551
-0.975914
-1.15716
-1.27318
-1.33647
-1.3604
-1.35765
-1.33869
-1.31086
-1.27889
-1.24567
-1.21284
-1.1813
-1.15154
-1.12383
-1.09841
-1.0757
-1.05599
-1.0416
-1.03049
-0.728625
-0.890188
-1.03015
-1.13682
-1.20938
-1.25163
-1.26957
-1.26977
-1.25798
-1.23869
-1.21519
-1.18971
-1.16372
-1.13818
-1.11373
-1.09088
-1.07024
-1.05221
-1.03918
-1.02916
-0.721166
-0.834684
-0.941943
-1.03395
-1.10584
-1.15642
-1.18728
-1.20162
-1.20317
-1.19545
-1.18146
-1.16356
-1.14352
-1.12263
-1.10183
-1.08187
-1.06355
-1.04739
-1.03589
-1.02719
-0.711528
-0.795835
-0.879404
-0.9566
-1.02274
-1.07503
-1.11268
-1.1365
-1.14833
-1.15046
-1.14523
-1.13474
-1.1208
-1.10483
-1.08798
-1.0712
-1.05542
-1.04133
-1.03151
-1.02432
-0.700482
-0.76572
-0.832195
-0.896584
-0.955388
-1.00578
-1.04602
-1.07553
-1.09473
-1.10478
-1.10719
-1.10362
-1.09565
-1.0847
-1.07199
-1.0586
-1.04557
-1.03373
-1.02576
-1.0202
-0.68942
-0.741229
-0.794979
-0.848741
-0.900123
-0.9468
-0.986887
-1.01917
-1.0432
-1.0592
-1.06794
-1.07052
-1.06818
-1.06216
-1.05367
-1.0438
-1.03367
-1.02421
-1.01823
-1.01432
-0.679283
-0.7211
-0.765047
-0.810008
-0.854419
-0.896547
-0.934734
-0.967618
-0.994292
-1.01438
-1.02803
-1.03579
-1.03849
-1.03712
-1.03275
-1.02644
-1.01927
-1.01227
-1.00837
-1.00599
-0.670815
-0.704856
-0.740983
-0.77856
-0.816592
-0.853863
-0.889064
-0.92094
-0.948453
-0.970896
-0.987969
-0.999765
-1.00672
-1.00951
-1.00898
-1.00609
-1.00185
-0.997312
-0.995492
-0.994355
-0.664621
-0.692397
-0.722095
-0.753367
-0.785598
-0.817971
-0.849521
-0.87922
-0.906084
-0.929296
-0.948301
-0.962861
-0.973062
-0.979274
-0.982096
-0.982302
-0.980788
-0.978577
-0.978703
-0.978319
-0.661182
-0.683773
-0.708061
-0.733865
-0.760817
-0.788389
-0.815906
-0.842586
-0.8676
-0.890167
-0.90964
-0.925588
-0.937841
-0.9465
-0.951915
-0.954654
-0.955441
-0.955229
-0.956966
-0.956624
-0.660944
-0.679156
-0.6988
-0.719794
-0.741923
-0.764856
-0.78814
-0.811213
-0.833431
-0.854127
-0.872679
-0.888589
-0.901538
-0.911431
-0.918406
-0.922825
-0.925215
-0.92642
-0.929166
-0.927925
-0.664146
-0.6786
-0.694212
-0.710945
-0.72867
-0.74718
-0.766176
-0.785266
-0.803976
-0.821782
-0.838156
-0.852622
-0.864817
-0.874538
-0.881774
-0.886712
-0.88969
-0.891419
-0.894263
-0.890954
-0.671713
-0.682861
-0.694862
-0.707703
-0.721306
-0.735537
-0.750196
-0.765014
-0.779653
-0.79372
-0.806801
-0.818495
-0.828466
-0.836489
-0.842479
-0.846506
-0.848759
-0.849817
-0.851551
-0.844847
-0.682482
-0.690748
-0.699617
-0.709044
-0.718956
-0.72924
-0.739738
-0.750244
-0.760506
-0.770237
-0.77913
-0.786893
-0.793271
-0.79809
-0.801273
-0.802843
-0.80289
-0.801887
-0.801095
-0.789614
-0.702363
-0.707724
-0.713283
-0.719032
-0.724909
-0.730826
-0.736668
-0.74229
-0.747515
-0.75214
-0.755948
-0.758728
-0.760304
-0.760554
-0.759431
-0.756947
-0.753139
-0.748406
-0.743354
-0.725542
-0.718549
-0.721896
-0.72533
-0.728699
-0.731885
-0.734747
-0.737116
-0.738794
-0.739572
-0.739239
-0.737602
-0.734513
-0.729889
-0.723736
-0.716146
-0.707264
-0.697246
-0.68654
-0.675012
-0.649325
-0.770229
-0.769115
-0.767215
-0.764607
-0.761171
-0.75676
-0.751242
-0.744496
-0.73642
-0.726936
-0.716013
-0.703685
-0.690076
-0.675411
-0.66001
-0.644239
-0.628454
-0.612935
-0.595532
-0.563191
)
;

boundaryField
{
    zeroGradPlanes
    {
        type            zeroGradient;
    }
    inlet
    {
        type            zeroGradient;
    }
    plate
    {
        type            zeroGradient;
    }
    frontAndBack
    {
        type            empty;
    }
}


// ************************************************************************* //
