/*--------------------------------*- C++ -*----------------------------------*\
| =========                 |                                                 |
| \\      /  F ield         | OpenFOAM: The Open Source CFD Toolbox           |
|  \\    /   O peration     | Version:  v1906                                 |
|   \\  /    A nd           | Web:      www.OpenFOAM.com                      |
|    \\/     M anipulation  |                                                 |
\*---------------------------------------------------------------------------*/
FoamFile
{
    version     2.0;
    format      ascii;
    class       surfaceScalarField;
    location    "0.5";
    object      phi;
}
// * * * * * * * * * * * * * * * * * * * * * * * * * * * * * * * * * * * * * //

dimensions      [0 3 -1 0 0 0 0];
oriented        oriented;


internalField   nonuniform List<scalar> 
1540
(
1.97821e-05
2.48529e-06
1.96317e-05
7.68995e-06
1.94779e-05
1.21502e-05
1.93264e-05
1.58685e-05
1.91784e-05
1.89508e-05
1.90337e-05
2.15144e-05
1.88915e-05
2.36619e-05
1.87505e-05
2.54727e-05
1.86093e-05
2.69988e-05
1.84655e-05
2.82638e-05
1.83163e-05
2.92631e-05
1.81575e-05
2.9966e-05
1.79829e-05
3.03193e-05
1.77827e-05
3.02512e-05
1.75411e-05
2.96739e-05
1.72349e-05
2.84827e-05
1.68193e-05
2.6564e-05
1.61587e-05
2.38085e-05
1.4942e-05
1.99947e-05
1.43963e-05
1.30545e-05
2.1535e-05
2.61005e-06
2.1373e-05
7.85199e-06
2.12067e-05
1.23166e-05
2.10436e-05
1.60315e-05
2.0885e-05
1.91095e-05
2.07307e-05
2.16686e-05
2.05804e-05
2.38123e-05
2.0433e-05
2.562e-05
2.02878e-05
2.7144e-05
2.01436e-05
2.8408e-05
1.99994e-05
2.94073e-05
1.98537e-05
3.01117e-05
1.97053e-05
3.04678e-05
1.95528e-05
3.04037e-05
1.93947e-05
2.9832e-05
1.92277e-05
2.86496e-05
1.905e-05
2.67417e-05
1.88624e-05
2.39961e-05
1.85959e-05
2.02612e-05
1.52589e-05
1.77333e-05
2.34471e-05
2.7375e-06
2.32751e-05
8.02392e-06
2.3098e-05
1.24937e-05
2.29252e-05
1.62043e-05
2.27587e-05
1.9276e-05
2.2599e-05
2.18283e-05
2.24462e-05
2.3965e-05
2.23009e-05
2.57654e-05
2.21639e-05
2.7281e-05
2.20371e-05
2.85348e-05
2.19236e-05
2.95208e-05
2.18286e-05
3.02067e-05
2.17603e-05
3.05362e-05
2.17306e-05
3.04334e-05
2.17554e-05
2.98072e-05
2.18498e-05
2.85552e-05
2.20151e-05
2.65764e-05
2.22101e-05
2.38011e-05
2.22627e-05
2.02086e-05
1.58791e-05
2.16425e-05
2.55322e-05
2.86376e-06
2.53535e-05
8.20256e-06
2.51684e-05
1.26789e-05
2.49892e-05
1.63834e-05
2.48192e-05
1.94459e-05
2.46601e-05
2.19875e-05
2.45134e-05
2.41117e-05
2.43818e-05
2.5897e-05
2.42693e-05
2.73935e-05
2.41823e-05
2.86217e-05
2.41303e-05
2.95728e-05
2.41265e-05
3.02104e-05
2.41887e-05
3.0474e-05
2.43379e-05
3.02843e-05
2.45935e-05
2.95515e-05
2.49606e-05
2.81881e-05
2.54056e-05
2.61313e-05
2.58268e-05
2.33799e-05
2.60108e-05
2.00246e-05
1.62869e-05
2.56031e-05
2.78053e-05
2.98507e-06
2.76246e-05
8.3833e-06
2.7436e-05
1.28674e-05
2.72557e-05
1.65638e-05
2.70889e-05
1.96127e-05
2.69389e-05
2.21375e-05
2.68096e-05
2.4241e-05
2.67068e-05
2.59998e-05
2.66389e-05
2.74614e-05
2.66177e-05
2.86429e-05
2.66595e-05
2.95311e-05
2.67843e-05
3.00856e-05
2.70148e-05
3.02435e-05
2.73711e-05
2.99279e-05
2.78608e-05
2.90618e-05
2.84619e-05
2.7587e-05
2.91029e-05
2.54903e-05
2.96506e-05
2.28323e-05
2.99125e-05
1.97626e-05
1.65205e-05
2.96789e-05
3.02827e-05
3.09761e-06
3.0106e-05
8.56008e-06
2.99208e-05
1.30526e-05
2.97469e-05
1.67377e-05
2.95923e-05
1.97673e-05
2.94629e-05
2.22669e-05
2.93655e-05
2.43384e-05
2.93098e-05
2.60555e-05
2.93091e-05
2.74621e-05
2.93808e-05
2.85711e-05
2.95461e-05
2.93658e-05
2.98282e-05
2.98035e-05
3.02476e-05
2.98241e-05
3.08137e-05
2.93618e-05
3.15129e-05
2.83626e-05
3.22948e-05
2.68051e-05
3.30635e-05
2.47216e-05
3.36839e-05
2.22119e-05
3.4007e-05
1.94396e-05
1.66099e-05
3.39176e-05
3.29822e-05
3.19762e-06
3.28169e-05
8.72537e-06
3.26442e-05
1.32253e-05
3.2487e-05
1.68949e-05
3.23566e-05
1.98977e-05
3.2262e-05
2.23615e-05
3.22137e-05
2.43867e-05
3.22256e-05
2.60436e-05
3.23155e-05
2.73722e-05
3.25049e-05
2.83818e-05
3.28169e-05
2.90538e-05
3.32723e-05
2.93481e-05
3.38826e-05
2.92139e-05
3.46405e-05
2.86039e-05
3.55101e-05
2.7493e-05
3.64206e-05
2.58946e-05
3.72693e-05
2.38729e-05
3.79386e-05
2.15426e-05
3.8324e-05
1.90542e-05
1.65677e-05
3.83661e-05
3.59227e-05
3.28149e-06
3.57778e-05
8.87024e-06
3.56291e-05
1.3374e-05
3.55016e-05
1.70223e-05
3.54104e-05
1.99889e-05
3.53676e-05
2.24043e-05
3.53876e-05
2.43667e-05
3.54881e-05
2.59431e-05
3.56902e-05
2.71701e-05
3.60166e-05
2.80553e-05
3.64885e-05
2.85819e-05
3.7119e-05
2.87176e-05
3.79063e-05
2.84266e-05
3.88255e-05
2.76848e-05
3.98234e-05
2.64951e-05
4.08204e-05
2.48976e-05
4.17208e-05
2.29726e-05
4.24314e-05
2.0832e-05
4.28834e-05
1.86022e-05
1.64033e-05
4.30478e-05
3.91252e-05
3.34577e-06
3.90109e-05
8.98451e-06
3.88997e-05
1.34853e-05
3.88179e-05
1.71042e-05
3.87831e-05
2.00237e-05
3.8811e-05
2.23764e-05
3.89192e-05
2.42585e-05
3.9128e-05
2.57343e-05
3.94595e-05
2.68386e-05
3.99346e-05
2.75802e-05
4.05683e-05
2.79483e-05
4.1363e-05
2.79229e-05
4.23025e-05
2.7487e-05
4.33476e-05
2.66397e-05
4.44359e-05
2.54068e-05
4.5489e-05
2.38444e-05
4.64254e-05
2.20362e-05
4.71755e-05
2.00819e-05
4.76952e-05
1.80825e-05
1.61267e-05
4.79718e-05
4.26124e-05
3.38715e-06
4.25398e-05
9.05711e-06
4.24817e-05
1.35434e-05
4.24634e-05
1.71224e-05
4.25044e-05
1.99827e-05
4.26228e-05
2.2258e-05
4.28381e-05
2.40431e-05
4.31715e-05
2.5401e-05
4.36433e-05
2.63668e-05
4.42695e-05
2.6954e-05
4.50563e-05
2.71616e-05
4.59945e-05
2.69847e-05
4.70559e-05
2.64257e-05
4.81921e-05
2.55035e-05
4.93394e-05
2.42594e-05
5.04273e-05
2.27566e-05
5.13901e-05
2.10734e-05
5.21778e-05
1.92942e-05
5.27627e-05
1.74976e-05
1.57491e-05
5.31403e-05
4.6409e-05
3.40245e-06
4.63898e-05
9.07636e-06
4.64014e-05
1.35318e-05
4.64661e-05
1.70577e-05
4.6603e-05
1.98458e-05
4.68309e-05
2.203e-05
4.71697e-05
2.37044e-05
4.76386e-05
2.4932e-05
4.82541e-05
2.57513e-05
4.90249e-05
2.61832e-05
4.99475e-05
2.62389e-05
5.10027e-05
2.59295e-05
5.21539e-05
2.52745e-05
5.33499e-05
2.43075e-05
5.45311e-05
2.30783e-05
5.56378e-05
2.16498e-05
5.66194e-05
2.00919e-05
5.74406e-05
1.8473e-05
5.80842e-05
1.6854e-05
1.52834e-05
5.85498e-05
5.0542e-05
3.38857e-06
5.05879e-05
9.03046e-06
5.06865e-05
1.34332e-05
5.08537e-05
1.68905e-05
5.11059e-05
1.95937e-05
5.14602e-05
2.16757e-05
5.19343e-05
2.32304e-05
5.25436e-05
2.43227e-05
5.32984e-05
2.49965e-05
5.41996e-05
2.52821e-05
5.52349e-05
2.52036e-05
5.63777e-05
2.47867e-05
5.75881e-05
2.40641e-05
5.88166e-05
2.30789e-05
6.0011e-05
2.18838e-05
6.11233e-05
2.05376e-05
6.21154e-05
1.90998e-05
6.29628e-05
1.76256e-05
6.3655e-05
1.61618e-05
1.47447e-05
6.41936e-05
5.50409e-05
3.34241e-06
5.51636e-05
8.90776e-06
5.5366e-05
1.32308e-05
5.56543e-05
1.66022e-05
5.60389e-05
1.92091e-05
5.65326e-05
2.1182e-05
5.71484e-05
2.26146e-05
5.78961e-05
2.35749e-05
5.8779e-05
2.41136e-05
5.97905e-05
2.42706e-05
6.0912e-05
2.40821e-05
6.21131e-05
2.35855e-05
6.33543e-05
2.28229e-05
6.45915e-05
2.18418e-05
6.57813e-05
2.06941e-05
6.68862e-05
1.94326e-05
6.78786e-05
1.81074e-05
6.87416e-05
1.67626e-05
6.9469e-05
1.54344e-05
1.41504e-05
7.00633e-05
5.9938e-05
3.26064e-06
6.0149e-05
8.69677e-06
6.04712e-05
1.29086e-05
6.08972e-05
1.61762e-05
6.1428e-05
1.86783e-05
6.20691e-05
2.05409e-05
6.2827e-05
2.18568e-05
6.37047e-05
2.26973e-05
6.46987e-05
2.31195e-05
6.57967e-05
2.31726e-05
6.69764e-05
2.29024e-05
6.82074e-05
2.23545e-05
6.94537e-05
2.15766e-05
7.06781e-05
2.06174e-05
7.18461e-05
1.9526e-05
7.293e-05
1.83488e-05
7.39098e-05
1.71276e-05
7.47744e-05
1.5898e-05
7.55205e-05
1.46883e-05
1.35199e-05
7.6151e-05
6.5269e-05
3.13909e-06
6.55803e-05
8.38544e-06
6.60377e-05
1.24512e-05
6.66156e-05
1.55983e-05
6.73022e-05
1.79917e-05
6.80935e-05
1.97495e-05
6.89879e-05
2.09624e-05
6.99816e-05
2.17035e-05
7.10657e-05
2.20355e-05
7.22241e-05
2.20142e-05
7.34341e-05
2.16924e-05
7.46678e-05
2.11209e-05
7.58947e-05
2.03497e-05
7.70854e-05
1.94267e-05
7.82141e-05
1.83973e-05
7.92609e-05
1.7302e-05
8.02122e-05
1.61763e-05
8.10612e-05
1.5049e-05
8.18066e-05
1.39429e-05
1.2875e-05
8.24516e-05
7.1074e-05
2.97144e-06
7.15003e-05
7.95913e-06
7.21088e-05
1.18428e-05
7.2851e-05
1.4856e-05
7.36995e-05
1.71433e-05
7.46389e-05
1.88101e-05
7.56593e-05
1.9942e-05
7.67508e-05
2.0612e-05
7.79008e-05
2.08855e-05
7.90923e-05
2.08227e-05
8.03046e-05
2.04801e-05
8.15143e-05
1.99111e-05
8.2698e-05
1.9166e-05
8.38339e-05
1.82909e-05
8.4904e-05
1.73272e-05
8.58949e-05
1.63111e-05
8.67984e-05
1.52728e-05
8.76109e-05
1.42365e-05
8.83326e-05
1.32211e-05
1.22405e-05
8.89671e-05
7.73995e-05
2.74633e-06
7.79615e-05
7.39705e-06
7.87399e-05
1.10644e-05
7.96585e-05
1.39374e-05
8.06722e-05
1.61295e-05
8.17543e-05
1.7728e-05
8.28869e-05
1.88094e-05
8.40556e-05
1.94434e-05
8.52458e-05
1.96952e-05
8.64421e-05
1.96264e-05
8.76277e-05
1.92945e-05
8.87854e-05
1.87534e-05
8.98993e-05
1.80521e-05
9.09554e-05
1.72347e-05
9.1943e-05
1.63396e-05
9.28549e-05
1.53993e-05
9.36871e-05
1.44405e-05
9.44389e-05
1.34847e-05
9.51121e-05
1.25479e-05
1.16423e-05
9.57103e-05
8.43041e-05
2.43868e-06
8.5033e-05
6.66812e-06
8.60032e-05
1.00942e-05
8.71087e-05
1.28319e-05
8.82882e-05
1.49501e-05
8.95047e-05
1.65115e-05
9.07346e-05
1.75795e-05
9.19605e-05
1.82174e-05
9.31684e-05
1.84873e-05
9.43456e-05
1.84491e-05
9.54807e-05
1.81595e-05
9.65629e-05
1.76711e-05
9.75837e-05
1.70314e-05
9.85362e-05
1.62822e-05
9.94161e-05
1.54597e-05
0.000100221
1.45939e-05
0.000100953
1.37095e-05
0.000101611
1.28258e-05
0.000102202
1.19577e-05
1.11164e-05
0.000102728
9.18697e-05
1.99054e-06
9.28062e-05
5.73162e-06
9.39884e-05
8.91201e-06
9.52863e-05
1.1534e-05
9.66268e-05
1.36096e-05
9.79653e-05
1.5173e-05
9.92733e-05
1.62716e-05
0.000100532
1.69586e-05
0.00010173
1.72899e-05
0.000102858
1.7321e-05
0.000103912
1.71056e-05
0.000104889
1.66937e-05
0.000105789
1.61311e-05
0.000106614
1.5458e-05
0.000107364
1.47094e-05
0.000108044
1.39142e-05
0.000108656
1.30965e-05
0.000109207
1.2275e-05
0.000109701
1.14645e-05
1.06757e-05
0.000110141
0.000100142
0.000101314
0.000102713
0.000104209
0.000105724
0.000107206
0.000108619
0.000109942
0.00011116
0.000112266
0.000113259
0.000114143
0.000114924
0.000115609
0.000116207
0.000116729
0.000117182
0.000117575
0.000117917
0.000118215
7.02671e-06
6.02776e-06
4.03504e-06
2.99167e-06
2.58386e-06
1.45118e-06
1.84759e-06
7.36271e-07
1.43859e-06
4.08997e-07
1.18329e-06
2.55304e-07
1.006e-06
1.77289e-07
8.73438e-07
1.3256e-07
7.69677e-07
1.03761e-07
6.86038e-07
8.36387e-08
6.17263e-07
6.87751e-08
5.59975e-07
5.7288e-08
5.11979e-07
4.79959e-08
4.71907e-07
4.00724e-08
4.39034e-07
3.28725e-08
4.13204e-07
2.58299e-08
3.9471e-07
1.84942e-08
3.84231e-07
1.04792e-08
3.80867e-07
3.36411e-09
-1.72922e-09
1.452e-05
9.24101e-06
1.11664e-05
6.34526e-06
8.49537e-06
4.12224e-06
6.57861e-06
2.65304e-06
5.24668e-06
1.74092e-06
4.3128e-06
1.18919e-06
3.6374e-06
8.52688e-07
3.13059e-06
6.39366e-07
2.73729e-06
4.97066e-07
2.42361e-06
3.97318e-07
2.16819e-06
3.24196e-07
1.95719e-06
2.68287e-07
1.78156e-06
2.23626e-07
1.63552e-06
1.86108e-07
1.51577e-06
1.52621e-07
1.42103e-06
1.20574e-07
1.3517e-06
8.78257e-08
1.30891e-06
5.32638e-08
1.29093e-06
2.13454e-08
1.04514e-09
1.98143e-05
1.10692e-05
1.71849e-05
8.97463e-06
1.44254e-05
6.88177e-06
1.19606e-05
5.11788e-06
9.93719e-06
3.7643e-06
8.3425e-06
2.78388e-06
7.1009e-06
2.09429e-06
6.12911e-06
1.61116e-06
5.35801e-06
1.26817e-06
4.73631e-06
1.01902e-06
4.22766e-06
8.32843e-07
3.80677e-06
6.89181e-07
3.45628e-06
5.74121e-07
3.16468e-06
4.77709e-07
2.92502e-06
3.92276e-07
2.73413e-06
3.11464e-07
2.59201e-06
2.29943e-07
2.49984e-06
1.45438e-07
2.45521e-06
6.59713e-08
1.60137e-08
2.44416e-05
1.22307e-05
2.2501e-05
1.09152e-05
2.00913e-05
9.29152e-06
1.75749e-05
7.63427e-06
1.52117e-05
6.12751e-06
1.31344e-05
4.8611e-06
1.13778e-05
3.85094e-06
9.91995e-06
3.069e-06
8.71698e-06
2.47114e-06
7.72246e-06
2.01353e-06
6.89598e-06
1.65932e-06
6.20546e-06
1.3797e-06
5.62687e-06
1.15271e-06
5.14325e-06
9.61325e-07
4.74379e-06
7.91744e-07
4.42304e-06
6.32212e-07
4.18027e-06
4.7271e-07
4.01669e-06
3.0902e-07
3.92918e-06
1.53477e-07
5.26817e-08
2.89111e-05
1.29985e-05
2.75093e-05
1.2317e-05
2.5559e-05
1.12418e-05
2.32677e-05
9.92565e-06
2.08645e-05
8.53073e-06
1.85357e-05
7.18987e-06
1.6399e-05
5.98762e-06
1.45075e-05
4.96051e-06
1.28688e-05
4.1098e-06
1.14656e-05
3.41679e-06
1.02702e-05
2.85468e-06
9.25422e-06
2.39569e-06
8.39263e-06
2.0143e-06
7.66592e-06
1.68804e-06
7.06073e-06
1.39693e-06
6.56996e-06
1.12297e-06
6.19239e-06
8.50279e-07
5.92965e-06
5.71764e-07
5.77836e-06
3.04764e-07
1.23825e-07
3.34256e-05
1.34904e-05
3.24388e-05
1.33038e-05
3.09356e-05
1.2745e-05
2.89945e-05
1.18667e-05
2.67609e-05
1.07643e-05
2.44008e-05
9.54998e-06
2.20615e-05
8.3269e-06
1.98498e-05
7.17225e-06
1.78279e-05
6.13166e-06
1.60219e-05
5.22287e-06
1.44331e-05
4.44345e-06
1.305e-05
3.77882e-06
1.18559e-05
3.20838e-06
1.08348e-05
2.70911e-06
9.97447e-06
2.25728e-06
9.26822e-06
1.82923e-06
8.71563e-06
1.40287e-06
8.31991e-06
9.67487e-07
8.07867e-06
5.46002e-07
2.46257e-07
3.80884e-05
1.37681e-05
3.74275e-05
1.39647e-05
3.63204e-05
1.38522e-05
3.47653e-05
1.34217e-05
3.28249e-05
1.27048e-05
3.06091e-05
1.17657e-05
2.82486e-05
1.06874e-05
2.58675e-05
9.55339e-06
2.35653e-05
8.43389e-06
2.14102e-05
7.37799e-06
1.94411e-05
6.41253e-06
1.76747e-05
5.54522e-06
1.61136e-05
4.7695e-06
1.47536e-05
4.06906e-06
1.35898e-05
3.42115e-06
1.26199e-05
2.79906e-06
1.18473e-05
2.17546e-06
1.12791e-05
1.53574e-06
1.09161e-05
9.08938e-07
4.41627e-07
4.29474e-05
1.38685e-05
4.25518e-05
1.43603e-05
4.1787e-05
1.46169e-05
4.06096e-05
1.45992e-05
3.9021e-05
1.42933e-05
3.70708e-05
1.3716e-05
3.48466e-05
1.29116e-05
3.2457e-05
1.19429e-05
3.00117e-05
1.08792e-05
2.7606e-05
9.78366e-06
2.53132e-05
8.70538e-06
2.3183e-05
7.67542e-06
2.12457e-05
6.70676e-06
1.95183e-05
5.79651e-06
1.80105e-05
4.92888e-06
1.67312e-05
4.07839e-06
1.56918e-05
3.21484e-06
1.49072e-05
2.32039e-06
1.43854e-05
1.43066e-06
7.37093e-07
4.80229e-05
1.38175e-05
4.78495e-05
1.45336e-05
4.738e-05
1.50865e-05
4.65533e-05
1.54259e-05
4.53335e-05
1.55132e-05
4.37202e-05
1.53292e-05
4.17525e-05
1.48793e-05
3.95029e-05
1.41925e-05
3.70655e-05
1.33166e-05
3.45408e-05
1.23084e-05
3.20226e-05
1.12236e-05
2.95894e-05
1.01086e-05
2.7302e-05
8.99424e-06
2.52044e-05
7.89401e-06
2.33296e-05
6.80377e-06
2.17041e-05
5.70388e-06
2.03542e-05
4.5647e-06
1.93079e-05
3.36667e-06
1.85862e-05
2.15243e-06
1.16565e-06
5.33217e-05
1.36361e-05
5.33369e-05
1.45184e-05
5.31217e-05
1.53016e-05
5.26116e-05
1.5936e-05
5.17515e-05
1.63733e-05
5.05075e-05
1.65732e-05
4.88758e-05
1.65109e-05
4.68868e-05
1.61816e-05
4.46019e-05
1.56014e-05
4.21056e-05
1.48047e-05
3.94929e-05
1.38364e-05
3.68582e-05
1.27433e-05
3.42871e-05
1.15653e-05
3.18523e-05
1.03288e-05
2.96142e-05
9.04193e-06
2.76243e-05
7.69379e-06
2.59306e-05
6.25837e-06
2.45811e-05
4.71619e-06
2.36163e-05
3.11716e-06
1.76577e-06
5.88422e-05
1.33438e-05
5.90168e-05
1.43439e-05
5.90191e-05
1.52993e-05
5.87883e-05
1.61669e-05
5.82631e-05
1.68984e-05
5.73909e-05
1.74455e-05
5.6137e-05
1.77648e-05
5.44933e-05
1.78252e-05
5.24829e-05
1.76118e-05
5.01591e-05
1.71285e-05
4.75995e-05
1.63959e-05
4.48969e-05
1.54459e-05
4.21489e-05
1.43133e-05
3.94504e-05
1.30273e-05
3.6889e-05
1.16034e-05
3.45448e-05
1.0038e-05
3.24936e-05
8.30963e-06
3.08099e-05
6.3998e-06
2.95621e-05
4.36505e-06
2.57978e-06
6.45777e-05
1.29596e-05
6.48843e-05
1.40372e-05
6.5069e-05
1.51147e-05
6.50783e-05
1.61576e-05
6.48529e-05
1.71238e-05
6.43331e-05
1.79653e-05
6.34659e-05
1.8632e-05
6.22147e-05
1.90765e-05
6.05666e-05
1.92599e-05
5.85384e-05
1.91567e-05
5.61772e-05
1.87571e-05
5.35568e-05
1.80663e-05
5.07703e-05
1.70998e-05
4.79215e-05
1.58761e-05
4.5118e-05
1.44068e-05
4.24668e-05
1.26892e-05
4.00735e-05
1.07029e-05
3.80448e-05
8.42857e-06
3.64827e-05
5.9271e-06
3.65067e-06
7.0519e-05
1.25039e-05
7.09304e-05
1.36259e-05
7.12625e-05
1.47826e-05
7.1471e-05
1.59491e-05
7.1503e-05
1.70917e-05
7.12997e-05
1.81686e-05
7.08011e-05
1.91306e-05
6.9953e-05
1.99246e-05
6.87156e-05
2.04973e-05
6.70716e-05
2.08007e-05
6.50325e-05
2.07962e-05
6.2641e-05
2.04578e-05
5.99693e-05
1.97715e-05
5.71141e-05
1.87313e-05
5.41892e-05
1.73317e-05
5.13197e-05
1.55588e-05
4.86376e-05
1.3385e-05
4.62818e-05
1.07844e-05
4.4392e-05
7.81687e-06
5.01674e-06
7.66569e-05
1.1998e-05
7.7145e-05
1.31378e-05
7.75888e-05
1.43388e-05
7.79534e-05
1.55844e-05
7.81947e-05
1.68505e-05
7.82598e-05
1.81035e-05
7.80897e-05
1.93008e-05
7.76233e-05
2.0391e-05
7.68046e-05
2.13161e-05
7.55905e-05
2.20148e-05
7.39595e-05
2.24272e-05
7.1919e-05
2.24983e-05
6.95094e-05
2.21811e-05
6.68042e-05
2.14365e-05
6.3907e-05
2.02289e-05
6.0946e-05
1.85198e-05
5.80693e-05
1.62617e-05
5.54415e-05
1.34122e-05
5.32368e-05
1.00216e-05
6.70417e-06
8.29847e-05
1.14649e-05
8.35201e-05
1.26024e-05
8.40388e-05
1.38201e-05
8.45145e-05
1.51088e-05
8.49123e-05
1.64527e-05
8.51881e-05
1.78277e-05
8.52891e-05
1.91998e-05
8.51557e-05
2.05243e-05
8.47261e-05
2.17457e-05
8.39419e-05
2.2799e-05
8.27574e-05
2.36117e-05
8.1148e-05
2.41077e-05
7.91184e-05
2.42107e-05
7.67089e-05
2.38459e-05
7.39974e-05
2.29405e-05
7.10979e-05
2.14193e-05
6.81574e-05
1.92022e-05
6.5352e-05
1.62176e-05
6.28789e-05
1.24946e-05
8.7184e-06
8.95018e-05
1.09301e-05
9.00529e-05
1.20513e-05
9.06074e-05
1.32656e-05
9.11465e-05
1.45697e-05
9.16441e-05
1.5955e-05
9.20659e-05
1.74059e-05
9.23679e-05
1.88977e-05
9.24977e-05
2.03945e-05
9.23957e-05
2.18478e-05
9.19992e-05
2.31955e-05
9.12489e-05
2.4362e-05
9.00972e-05
2.52594e-05
8.85179e-05
2.579e-05
8.65154e-05
2.58485e-05
8.41319e-05
2.53239e-05
8.14516e-05
2.40996e-05
7.86009e-05
2.20529e-05
7.57465e-05
1.9072e-05
7.30881e-05
1.51531e-05
1.10363e-05
9.62214e-05
1.04191e-05
9.67563e-05
1.15164e-05
9.73068e-05
1.27151e-05
9.78603e-05
1.40163e-05
9.83983e-05
1.5417e-05
9.88956e-05
1.69086e-05
9.93188e-05
1.84745e-05
9.96253e-05
2.00879e-05
9.9764e-05
2.17091e-05
9.96765e-05
2.3283e-05
9.93012e-05
2.47373e-05
9.85793e-05
2.59814e-05
9.74632e-05
2.69061e-05
9.59266e-05
2.7385e-05
9.39746e-05
2.7276e-05
9.1651e-05
2.64231e-05
8.90443e-05
2.46596e-05
8.62883e-05
2.18279e-05
8.35581e-05
1.78833e-05
1.36024e-05
0.000103179
9.9675e-06
0.000103657
1.10385e-05
0.000104157
1.22153e-05
0.000104671
1.35023e-05
0.000105187
1.49007e-05
0.000105689
1.64071e-05
0.000106151
1.80116e-05
0.000106544
1.96951e-05
0.000106827
2.14266e-05
0.00010695
2.31593e-05
0.00010686
2.4828e-05
0.000106496
2.63453e-05
0.000105802
2.75998e-05
0.000104732
2.84546e-05
0.00010326
2.87482e-05
0.000101388
2.82956e-05
9.91531e-05
2.68942e-05
9.66366e-05
2.43444e-05
9.39606e-05
2.05593e-05
1.63298e-05
0.000110521
9.58729e-06
0.000110923
1.0637e-05
0.000111343
1.17957e-05
0.000111776
1.30691e-05
0.000112216
1.44607e-05
0.000112652
1.59706e-05
0.000113071
1.7593e-05
0.000113452
1.93145e-05
0.000113768
2.11103e-05
0.000113986
2.29416e-05
0.000114063
2.47507e-05
0.000113951
2.64575e-05
0.000113595
2.79553e-05
0.000112942
2.91079e-05
0.000111942
2.97481e-05
0.000110558
2.96793e-05
0.000108772
2.86806e-05
0.000106591
2.65257e-05
0.000104069
2.30811e-05
1.9124e-05
0.000118465
0.000118733
0.000119022
0.000119331
0.000119657
0.000119998
0.000120346
0.00012069
0.000121014
0.000121296
0.000121503
0.000121595
0.000121522
0.000121225
0.000120636
0.000119685
0.000118299
0.000116397
0.000113903
)
;

boundaryField
{
    zeroGradPlanes
    {
        type            calculated;
        value           nonuniform List<scalar> 
80
(
-2.36679e-06
-7.53953e-06
-1.19964e-05
-1.57169e-05
-1.88028e-05
-2.13697e-05
-2.35197e-05
-2.53317e-05
-2.68575e-05
-2.812e-05
-2.91139e-05
-2.98072e-05
-3.01447e-05
-3.0051e-05
-2.94324e-05
-2.81764e-05
-2.61484e-05
-2.31479e-05
-1.87779e-05
-1.25088e-05
3.82596e-07
1.28816e-06
2.44024e-06
3.89252e-06
5.70722e-06
7.95623e-06
1.07208e-05
1.409e-05
1.81576e-05
2.30162e-05
2.87481e-05
3.54118e-05
4.30259e-05
5.15494e-05
6.08647e-05
7.07702e-05
8.09921e-05
9.12332e-05
0.000101275
0.000110728
1.35149e-06
4.55987e-06
7.51294e-06
1.00377e-05
1.20947e-05
1.36914e-05
1.4858e-05
1.5636e-05
1.60721e-05
1.62148e-05
1.6112e-05
1.58097e-05
1.53506e-05
1.4773e-05
1.41109e-05
1.3393e-05
1.26433e-05
1.18814e-05
1.11225e-05
1.03786e-05
9.33722e-06
1.03684e-05
1.15067e-05
1.27604e-05
1.41341e-05
1.563e-05
1.72453e-05
1.89703e-05
2.0786e-05
2.26601e-05
2.45435e-05
2.63653e-05
2.80283e-05
2.94055e-05
3.03367e-05
3.06298e-05
3.00674e-05
2.84272e-05
2.55752e-05
2.22991e-05
)
;
    }
    inlet
    {
        type            calculated;
        value           nonuniform List<scalar> 
20
(
-1.99006e-05
-2.16598e-05
-2.35745e-05
-2.56584e-05
-2.79266e-05
-3.03953e-05
-3.30822e-05
-3.60066e-05
-3.91895e-05
-4.26538e-05
-4.64243e-05
-5.05282e-05
-5.49948e-05
-5.98562e-05
-6.51474e-05
-7.09063e-05
-7.71743e-05
-8.39964e-05
-9.14216e-05
-9.95031e-05
)
;
    }
    plate
    {
        type            calculated;
        value           uniform 0;
    }
    frontAndBack
    {
        type            empty;
        value           nonuniform 0();
    }
}


// ************************************************************************* //
