/*--------------------------------*- C++ -*----------------------------------*\
| =========                 |                                                 |
| \\      /  F ield         | OpenFOAM: The Open Source CFD Toolbox           |
|  \\    /   O peration     | Version:  v1906                                 |
|   \\  /    A nd           | Web:      www.OpenFOAM.com                      |
|    \\/     M anipulation  |                                                 |
\*---------------------------------------------------------------------------*/
FoamFile
{
    version     2.0;
    format      ascii;
    class       volVectorField;
    location    "0.5";
    object      U;
}
// * * * * * * * * * * * * * * * * * * * * * * * * * * * * * * * * * * * * * //

dimensions      [0 1 -1 0 0 0 0];


internalField   nonuniform List<vector> 
800
(
(0.99785 0.0243191 0)
(0.990623 0.0831906 0)
(0.982747 0.143619 0)
(0.975069 0.204511 0)
(0.967528 0.266088 0)
(0.960177 0.328989 0)
(0.952976 0.393972 0)
(0.945872 0.461737 0)
(0.938797 0.532754 0)
(0.931657 0.607071 0)
(0.924329 0.684098 0)
(0.91664 0.762382 0)
(0.908334 0.839364 0)
(0.89903 0.911107 0)
(0.888237 0.971947 0)
(0.874935 1.01396 0)
(0.855907 1.02638 0)
(0.829104 0.994059 0)
(0.810298 0.889944 0)
(0.784263 0.659818 0)
(0.997943 0.0254388 0)
(0.990856 0.0847546 0)
(0.983036 0.145364 0)
(0.97543 0.206379 0)
(0.967986 0.268073 0)
(0.960764 0.3311 0)
(0.953735 0.396228 0)
(0.946866 0.464168 0)
(0.940118 0.535401 0)
(0.933445 0.60999 0)
(0.926797 0.687372 0)
(0.920117 0.766133 0)
(0.913341 0.843775 0)
(0.906403 0.916466 0)
(0.899317 0.978725 0)
(0.892089 1.02296 0)
(0.88386 1.03912 0)
(0.874879 1.01459 0)
(0.873663 0.929809 0)
(0.865903 0.747195 0)
(0.998122 0.0268694 0)
(0.991332 0.0868099 0)
(0.983655 0.147664 0)
(0.97622 0.208831 0)
(0.969001 0.270664 0)
(0.962074 0.333832 0)
(0.955438 0.399115 0)
(0.949102 0.467226 0)
(0.943092 0.538646 0)
(0.937463 0.613437 0)
(0.932316 0.691031 0)
(0.927821 0.769997 0)
(0.924249 0.8478 0)
(0.922021 0.92054 0)
(0.921776 0.982645 0)
(0.924303 1.02647 0)
(0.929862 1.04204 0)
(0.938178 1.01768 0)
(0.948366 0.939704 0)
(0.944218 0.791569 0)
(0.998354 0.0281948 0)
(0.99201 0.0887996 0)
(0.984612 0.149901 0)
(0.977481 0.211197 0)
(0.970645 0.273131 0)
(0.964211 0.336385 0)
(0.958223 0.401737 0)
(0.952757 0.469885 0)
(0.947938 0.541284 0)
(0.943962 0.615949 0)
(0.94113 0.693231 0)
(0.939874 0.771577 0)
(0.940798 0.848261 0)
(0.944676 0.919121 0)
(0.952381 0.978316 0)
(0.964572 1.01816 0)
(0.980893 1.02944 0)
(0.999203 1.0028 0)
(1.01428 0.931051 0)
(1.01344 0.812705 0)
(0.99861 0.0294357 0)
(0.992851 0.0907634 0)
(0.985901 0.152124 0)
(0.979243 0.213526 0)
(0.972981 0.275509 0)
(0.967268 0.338768 0)
(0.962214 0.404062 0)
(0.957982 0.472051 0)
(0.954817 0.543122 0)
(0.953075 0.617187 0)
(0.953252 0.693445 0)
(0.956 0.770128 0)
(0.962107 0.84425 0)
(0.972398 0.911403 0)
(0.987493 0.965711 0)
(1.00732 1.00008 0)
(1.03038 1.0071 0)
(1.05317 0.980859 0)
(1.06981 0.919288 0)
(1.072 0.826757 0)
(0.998871 0.0306102 0)
(0.993817 0.0927251 0)
(0.98751 0.154359 0)
(0.981525 0.215835 0)
(0.976057 0.277795 0)
(0.971322 0.34094 0)
(0.967506 0.405994 0)
(0.964874 0.473545 0)
(0.963794 0.54387 0)
(0.964767 0.616724 0)
(0.968433 0.691098 0)
(0.975543 0.764985 0)
(0.986864 0.835187 0)
(1.00297 0.897264 0)
(1.02393 0.945736 0)
(1.04879 0.974696 0)
(1.07523 0.978957 0)
(1.09936 0.955633 0)
(1.11623 0.905617 0)
(1.12091 0.834403 0)
(0.999124 0.0316835 0)
(0.994876 0.0946147 0)
(0.989418 0.156515 0)
(0.984328 0.218013 0)
(0.979898 0.279843 0)
(0.976409 0.342708 0)
(0.974136 0.40727 0)
(0.973438 0.474013 0)
(0.97479 0.543063 0)
(0.97879 0.613983 0)
(0.98613 0.685546 0)
(0.997514 0.755554 0)
(1.01349 0.820756 0)
(1.03421 0.876969 0)
(1.05911 0.919499 0)
(1.08662 0.9439 0)
(1.11407 0.947022 0)
(1.13799 0.928063 0)
(1.15475 0.889167 0)
(1.16164 0.83525 0)
(0.999357 0.0326122 0)
(0.995993 0.0963323 0)
(0.991589 0.15846 0)
(0.987628 0.219896 0)
(0.984488 0.281452 0)
(0.982513 0.343815 0)
(0.982058 0.407565 0)
(0.983559 0.473052 0)
(0.987558 0.540228 0)
(0.994678 0.608456 0)
(1.00556 0.676334 0)
(1.02072 0.741588 0)
(1.04039 0.801123 0)
(1.06426 0.851282 0)
(1.09127 0.888366 0)
(1.11957 0.909356 0)
(1.14664 0.912662 0)
(1.16969 0.898656 0)
(1.18634 0.869719 0)
(1.19512 0.829746 0)
(0.999567 0.0333596 0)
(0.99714 0.0977699 0)
(0.993976 0.160041 0)
(0.991374 0.221293 0)
(0.989768 0.282388 0)
(0.989549 0.34398 0)
(0.99113 0.406545 0)
(0.994992 0.470282 0)
(1.00169 0.534967 0)
(1.01178 0.599799 0)
(1.02578 0.663283 0)
(1.04395 0.723223 0)
(1.06615 0.776867 0)
(1.09172 0.821252 0)
(1.11935 0.853698 0)
(1.1472 0.872364 0)
(1.17314 0.876694 0)
(1.19512 0.867579 0)
(1.21164 0.847169 0)
(1.22192 0.818387 0)
(0.999752 0.0338921 0)
(0.998291 0.0988111 0)
(0.996523 0.161082 0)
(0.995488 0.221983 0)
(0.995627 0.28239 0)
(0.997355 0.342902 0)
(1.00111 0.403879 0)
(1.00736 0.46537 0)
(1.01662 0.526999 0)
(1.02935 0.587864 0)
(1.04583 0.646487 0)
(1.06607 0.70089 0)
(1.08966 0.748797 0)
(1.1157 0.787976 0)
(1.14285 0.816644 0)
(1.16948 0.833826 0)
(1.19392 0.839561 0)
(1.21476 0.834871 0)
(1.23105 0.821527 0)
(1.24241 0.801677 0)
(0.999914 0.0341777 0)
(0.999424 0.0993306 0)
(0.999167 0.16139 0)
(0.999862 0.221722 0)
(1.00191 0.281177 0)
(1.0057 0.340279 0)
(1.01165 0.399269 0)
(1.02019 0.458063 0)
(1.03173 0.516183 0)
(1.04657 0.572702 0)
(1.06479 0.626268 0)
(1.08616 0.67522 0)
(1.11011 0.717804 0)
(1.13566 0.752464 0)
(1.16159 0.778122 0)
(1.18656 0.794377 0)
(1.20935 0.801561 0)
(1.22898 0.800638 0)
(1.24489 0.792998 0)
(1.25689 0.780211 0)
(1.00006 0.0341848 0)
(1.00052 0.0991992 0)
(1.00184 0.160761 0)
(1.00437 0.220252 0)
(1.00841 0.278464 0)
(1.01428 0.335828 0)
(1.02235 0.392474 0)
(1.03294 0.448217 0)
(1.04635 0.502531 0)
(1.06269 0.554549 0)
(1.08188 0.603119 0)
(1.10355 0.646944 0)
(1.12702 0.68477 0)
(1.15139 0.715601 0)
(1.17563 0.738868 0)
(1.19871 0.754516 0)
(1.21974 0.762988 0)
(1.23809 0.765116 0)
(1.25342 0.761969 0)
(1.26563 0.754692 0)
(1.00019 0.0338827 0)
(1.00157 0.0982882 0)
(1.00448 0.158991 0)
(1.00888 0.217325 0)
(1.01491 0.273991 0)
(1.0228 0.329318 0)
(1.03278 0.383339 0)
(1.04509 0.435807 0)
(1.05986 0.486207 0)
(1.07709 0.533786 0)
(1.09654 0.577637 0)
(1.11778 0.616822 0)
(1.14015 0.650518 0)
(1.16289 0.678154 0)
(1.18515 0.699501 0)
(1.2062 0.714696 0)
(1.22542 0.724195 0)
(1.24239 0.728687 0)
(1.25691 0.728986 0)
(1.26895 0.725934 0)
(1.0003 0.0332396 0)
(1.00257 0.0964717 0)
(1.00704 0.155883 0)
(1.01328 0.21271 0)
(1.02122 0.267537 0)
(1.03095 0.320586 0)
(1.04257 0.37181 0)
(1.05618 0.420935 0)
(1.0718 0.467497 0)
(1.0893 0.510896 0)
(1.1084 0.55047 0)
(1.12866 0.585598 0)
(1.1495 0.615796 0)
(1.17029 0.640795 0)
(1.19043 0.660582 0)
(1.20937 0.675383 0)
(1.22671 0.685626 0)
(1.24219 0.69187 0)
(1.25569 0.694738 0)
(1.26721 0.694856 0)
(1.00042 0.0322185 0)
(1.00354 0.0936214 0)
(1.0095 0.15125 0)
(1.01751 0.206205 0)
(1.02721 0.258935 0)
(1.03852 0.309549 0)
(1.05143 0.357932 0)
(1.0659 0.403809 0)
(1.08186 0.446789 0)
(1.09912 0.486426 0)
(1.11737 0.522279 0)
(1.13623 0.553979 0)
(1.15523 0.581294 0)
(1.1739 0.604156 0)
(1.19181 0.622673 0)
(1.2086 0.637111 0)
(1.22401 0.647851 0)
(1.23788 0.655346 0)
(1.25014 0.660078 0)
(1.26083 0.662521 0)
(1.00054 0.0307715 0)
(1.0045 0.0895999 0)
(1.01192 0.144911 0)
(1.02157 0.197639 0)
(1.03283 0.248072 0)
(1.04545 0.296197 0)
(1.05927 0.341838 0)
(1.07418 0.384722 0)
(1.09001 0.424533 0)
(1.10658 0.460955 0)
(1.1236 0.49372 0)
(1.14076 0.522646 0)
(1.15772 0.547669 0)
(1.17417 0.568845 0)
(1.1898 0.58635 0)
(1.20439 0.600455 0)
(1.2178 0.611498 0)
(1.22993 0.619853 0)
(1.24077 0.625899 0)
(1.25035 0.630007 0)
(1.00069 0.0288318 0)
(1.00556 0.0842642 0)
(1.01443 0.136717 0)
(1.02562 0.18691 0)
(1.03823 0.234931 0)
(1.05185 0.280627 0)
(1.06624 0.323753 0)
(1.08118 0.364036 0)
(1.0965 0.401213 0)
(1.11201 0.435066 0)
(1.1275 0.465448 0)
(1.14274 0.492299 0)
(1.15752 0.515651 0)
(1.17164 0.535631 0)
(1.18493 0.55244 0)
(1.19728 0.56634 0)
(1.20861 0.577625 0)
(1.21889 0.586609 0)
(1.22814 0.593603 0)
(1.23638 0.598903 0)
(1.00093 0.0262257 0)
(1.00691 0.0773428 0)
(1.01726 0.126467 0)
(1.02988 0.173955 0)
(1.04362 0.219616 0)
(1.05796 0.263119 0)
(1.07257 0.304124 0)
(1.08723 0.342327 0)
(1.10176 0.377484 0)
(1.11601 0.409432 0)
(1.12981 0.438092 0)
(1.14306 0.463474 0)
(1.15561 0.485667 0)
(1.1674 0.504832 0)
(1.17833 0.521182 0)
(1.18839 0.534965 0)
(1.19755 0.546447 0)
(1.20583 0.5559 0)
(1.21327 0.563586 0)
(1.21992 0.569756 0)
(1.00141 0.0222107 0)
(1.00889 0.067633 0)
(1.02076 0.112887 0)
(1.03464 0.15758 0)
(1.04923 0.20111 0)
(1.06398 0.242918 0)
(1.07852 0.282538 0)
(1.09262 0.319597 0)
(1.10609 0.353818 0)
(1.11885 0.385021 0)
(1.13081 0.413123 0)
(1.14194 0.438132 0)
(1.15223 0.460138 0)
(1.16168 0.479292 0)
(1.1703 0.495795 0)
(1.17813 0.509875 0)
(1.1852 0.52178 0)
(1.19157 0.531755 0)
(1.19728 0.540041 0)
(1.20239 0.546864 0)
(1.00205 0.0156092 0)
(1.01117 0.0539179 0)
(1.02438 0.0947535 0)
(1.03927 0.136323 0)
(1.05459 0.177492 0)
(1.06976 0.217475 0)
(1.08439 0.2557 0)
(1.0982 0.29174 0)
(1.11102 0.325286 0)
(1.12273 0.356129 0)
(1.13331 0.384159 0)
(1.14276 0.409351 0)
(1.15113 0.431754 0)
(1.1585 0.451483 0)
(1.16495 0.468696 0)
(1.17057 0.483585 0)
(1.17546 0.496361 0)
(1.1797 0.507243 0)
(1.18339 0.516446 0)
(1.18659 0.524179 0)
(0.440729 0.247821 0)
(0.263021 0.0930405 0)
(0.157064 0.0334488 0)
(0.105369 0.0121815 0)
(0.079444 0.00485906 0)
(0.0641788 0.00233513 0)
(0.0539709 0.00138834 0)
(0.046538 0.000951675 0)
(0.0408037 0.000698074 0)
(0.0362201 0.000527947 0)
(0.0324723 0.000405631 0)
(0.0293605 0.000314193 0)
(0.0267536 0.000243618 0)
(0.0245672 0.000187278 0)
(0.0227515 0.000140496 0)
(0.0212872 9.97522e-05 0)
(0.020175 6.28823e-05 0)
(0.0194635 2.78313e-05 0)
(0.0191122 2.57903e-06 0)
(0.0192069 -1.40107e-05 0)
(0.743306 0.457126 0)
(0.588756 0.248726 0)
(0.444502 0.126917 0)
(0.338908 0.0650021 0)
(0.266504 0.0349351 0)
(0.216291 0.0202773 0)
(0.180514 0.0127746 0)
(0.154124 0.00860092 0)
(0.133931 0.00606943 0)
(0.117995 0.00442355 0)
(0.105117 0.00329637 0)
(0.0945291 0.002492 0)
(0.0857292 0.00189667 0)
(0.0783906 0.00143967 0)
(0.0723123 0.00107451 0)
(0.0673972 0.000769201 0)
(0.0636198 0.000502748 0)
(0.0610798 0.000263835 0)
(0.0596741 8.03182e-05 0)
(0.0595902 -2.23715e-05 0)
(0.886328 0.58709 0)
(0.787304 0.403282 0)
(0.66698 0.260618 0)
(0.55335 0.163897 0)
(0.458067 0.10291 0)
(0.38226 0.0658958 0)
(0.32322 0.0435824 0)
(0.277273 0.0298573 0)
(0.241087 0.0211175 0)
(0.212122 0.0153348 0)
(0.188566 0.0113646 0)
(0.169153 0.00854344 0)
(0.15301 0.00647129 0)
(0.139547 0.00489636 0)
(0.128384 0.0036532 0)
(0.119321 0.00262938 0)
(0.112285 0.00174968 0)
(0.107395 0.000979739 0)
(0.104499 0.000372198 0)
(0.103844 4.41083e-05 0)
(0.981285 0.66697 0)
(0.919248 0.52117 0)
(0.830735 0.385885 0)
(0.73148 0.27517 0)
(0.634644 0.192041 0)
(0.547617 0.133218 0)
(0.473157 0.0930128 0)
(0.4111 0.0658712 0)
(0.359899 0.0474718 0)
(0.317665 0.0348136 0)
(0.282665 0.0259226 0)
(0.253486 0.0195263 0)
(0.229049 0.0148017 0)
(0.208567 0.0112076 0)
(0.191512 0.00837872 0)
(0.177581 0.00606356 0)
(0.166649 0.00409118 0)
(0.158838 0.00238415 0)
(0.153963 0.00101883 0)
(0.152317 0.000264578 0)
(1.05344 0.718781 0)
(1.01441 0.605121 0)
(0.952638 0.487998 0)
(0.874372 0.379478 0)
(0.788322 0.287026 0)
(0.702303 0.213252 0)
(0.621766 0.157132 0)
(0.549591 0.115738 0)
(0.486644 0.0856884 0)
(0.432573 0.0639573 0)
(0.386461 0.0481566 0)
(0.347248 0.0365259 0)
(0.313952 0.0278114 0)
(0.28577 0.0211297 0)
(0.262113 0.015856 0)
(0.242625 0.0115464 0)
(0.227149 0.00789253 0)
(0.215816 0.00474788 0)
(0.208431 0.00220861 0)
(0.205342 0.000743612 0)
(1.11097 0.753018 0)
(1.08693 0.66488 0)
(1.04537 0.567935 0)
(0.987442 0.470032 0)
(0.917233 0.378318 0)
(0.840257 0.297751 0)
(0.761913 0.230611 0)
(0.686454 0.176886 0)
(0.6166 0.135107 0)
(0.553686 0.103178 0)
(0.498049 0.078959 0)
(0.449432 0.0605695 0)
(0.407312 0.046487 0)
(0.371119 0.0355334 0)
(0.340368 0.0268169 0)
(0.314745 0.0196723 0)
(0.294122 0.0136213 0)
(0.278667 0.00842183 0)
(0.268218 0.00418524 0)
(0.26321 0.00161928 0)
(1.15781 0.77392 0)
(1.14402 0.706111 0)
(1.11726 0.628126 0)
(1.0765 0.544311 0)
(1.02274 0.459865 0)
(0.958808 0.37969 0)
(0.88856 0.307477 0)
(0.816023 0.245277 0)
(0.744657 0.193587 0)
(0.676988 0.151762 0)
(0.614579 0.118507 0)
(0.558192 0.0922962 0)
(0.50805 0.0716471 0)
(0.464077 0.055253 0)
(0.426097 0.0420275 0)
(0.393982 0.0311018 0)
(0.367727 0.0218204 0)
(0.347605 0.0138285 0)
(0.333543 0.00724992 0)
(0.326128 0.00307178 0)
(1.19582 0.783978 0)
(1.18931 0.732418 0)
(1.17339 0.671096 0)
(1.14633 0.602027 0)
(1.10749 0.528362 0)
(1.05764 0.453848 0)
(0.998801 0.382132 0)
(0.933854 0.316155 0)
(0.865954 0.25779 0)
(0.798025 0.207801 0)
(0.732423 0.166029 0)
(0.670829 0.131703 0)
(0.61431 0.10373 0)
(0.563464 0.0809334 0)
(0.518619 0.0621872 0)
(0.479996 0.0465019 0)
(0.447845 0.0330772 0)
(0.422635 0.0214499 0)
(0.404458 0.0117619 0)
(0.394161 0.00533097 0)
(1.22597 0.784874 0)
(1.22473 0.74636 0)
(1.21679 0.699231 0)
(1.20037 0.64411 0)
(1.17416 0.582553 0)
(1.13767 0.516926 0)
(1.09142 0.450075 0)
(1.0369 0.384861 0)
(0.976361 0.323728 0)
(0.912369 0.268399 0)
(0.847474 0.219769 0)
(0.783903 0.17798 0)
(0.723426 0.142607 0)
(0.667348 0.112866 0)
(0.616612 0.0878088 0)
(0.571934 0.0664658 0)
(0.533952 0.0479759 0)
(0.503447 0.0318049 0)
(0.480766 0.0181325 0)
(0.467154 0.00868173 0)
(1.24887 0.777866 0)
(1.25143 0.749841 0)
(1.24935 0.714582 0)
(1.24105 0.671949 0)
(1.22507 0.622431 0)
(1.20032 0.567217 0)
(1.16633 0.508129 0)
(1.12343 0.447397 0)
(1.07274 0.387345 0)
(1.01604 0.330056 0)
(0.955523 0.277112 0)
(0.893464 0.229462 0)
(0.832006 0.187432 0)
(0.773008 0.150823 0)
(0.718011 0.119069 0)
(0.668294 0.0914006 0)
(0.624988 0.0670224 0)
(0.589296 0.0454045 0)
(0.561906 0.0268074 0)
(0.544642 0.0134648 0)
(1.26498 0.764065 0)
(1.27022 0.744431 0)
(1.27235 0.718944 0)
(1.2701 0.687094 0)
(1.26213 0.648733 0)
(1.24716 0.604206 0)
(1.2242 0.554408 0)
(1.19276 0.500751 0)
(1.15303 0.445019 0)
(1.10583 0.38913 0)
(1.05265 0.334882 0)
(0.995385 0.283717 0)
(0.936131 0.236588 0)
(0.877 0.193918 0)
(0.819965 0.155654 0)
(0.76682 0.121389 0)
(0.719219 0.0905382 0)
(0.678858 0.0626835 0)
(0.646834 0.038232 0)
(0.62574 0.0200689 0)
(1.27472 0.744546 0)
(1.28171 0.731558 0)
(1.28675 0.713985 0)
(1.28887 0.69118 0)
(1.28693 0.662669 0)
(1.27971 0.628262 0)
(1.26606 0.588162 0)
(1.24505 0.543019 0)
(1.21618 0.493922 0)
(1.17947 0.442299 0)
(1.13559 0.389743 0)
(1.08575 0.3378 0)
(1.03168 0.28777 0)
(0.975354 0.240565 0)
(0.918908 0.196645 0)
(0.864473 0.156052 0)
(0.814149 0.118537 0)
(0.770117 0.0839051 0)
(0.733895 0.0527948 0)
(0.709036 0.028909 0)
(1.27847 0.720417 0)
(1.28647 0.712615 0)
(1.29337 0.701332 0)
(1.29846 0.685918 0)
(1.30082 0.665769 0)
(1.29944 0.640414 0)
(1.29321 0.609602 0)
(1.28104 0.5734 0)
(1.26206 0.532245 0)
(1.23571 0.486951 0)
(1.20194 0.438644 0)
(1.16125 0.388629 0)
(1.11471 0.338219 0)
(1.0639 0.288558 0)
(1.01077 0.240481 0)
(0.95752 0.194449 0)
(0.906512 0.150599 0)
(0.860294 0.10905 0)
(0.820735 0.0707489 0)
(0.792499 0.0403857 0)
(1.27669 0.692844 0)
(1.28507 0.689013 0)
(1.29297 0.682625 0)
(1.29985 0.673094 0)
(1.30507 0.659807 0)
(1.30779 0.64218 0)
(1.30708 0.619719 0)
(1.3019 0.592105 0)
(1.29125 0.559269 0)
(1.27426 0.52145 0)
(1.25037 0.479216 0)
(1.21945 0.433416 0)
(1.1819 0.385086 0)
(1.13869 0.335309 0)
(1.09132 0.285054 0)
(1.04178 0.235057 0)
(0.992403 0.185792 0)
(0.94589 0.137712 0)
(0.904288 0.0921179 0)
(0.873457 0.0548247 0)
(1.26986 0.663107 0)
(1.27812 0.662251 0)
(1.28629 0.659584 0)
(1.29402 0.654609 0)
(1.30085 0.646769 0)
(1.30616 0.635472 0)
(1.30921 0.620133 0)
(1.30911 0.600221 0)
(1.30493 0.575336 0)
(1.29569 0.545271 0)
(1.28059 0.510075 0)
(1.25904 0.470077 0)
(1.23089 0.425863 0)
(1.19646 0.378206 0)
(1.15668 0.32795 0)
(1.11304 0.275883 0)
(1.06759 0.222671 0)
(1.02289 0.16903 0)
(0.980908 0.116608 0)
(0.948676 0.0724018 0)
(1.25859 0.632476 0)
(1.26628 0.633801 0)
(1.27413 0.633899 0)
(1.28192 0.632364 0)
(1.28932 0.62872 0)
(1.29592 0.622427 0)
(1.30115 0.612894 0)
(1.30434 0.599513 0)
(1.30468 0.581703 0)
(1.30129 0.558967 0)
(1.29329 0.530958 0)
(1.27989 0.497532 0)
(1.26054 0.458783 0)
(1.23507 0.415039 0)
(1.20379 0.366811 0)
(1.16761 0.314712 0)
(1.12806 0.259398 0)
(1.08722 0.201705 0)
(1.04671 0.143545 0)
(1.01462 0.0930432 0)
(1.24356 0.602721 0)
(1.25037 0.605611 0)
(1.25744 0.607703 0)
(1.26464 0.608676 0)
(1.27177 0.608137 0)
(1.27856 0.605618 0)
(1.28463 0.600578 0)
(1.28947 0.592413 0)
(1.29249 0.580478 0)
(1.29295 0.564126 0)
(1.29007 0.542755 0)
(1.28304 0.515865 0)
(1.27114 0.483119 0)
(1.25387 0.44438 0)
(1.23107 0.399725 0)
(1.20304 0.349424 0)
(1.17068 0.293932 0)
(1.1354 0.234034 0)
(1.09814 0.17177 0)
(1.06795 0.116235 0)
(1.22573 0.574559 0)
(1.23128 0.578598 0)
(1.23712 0.582161 0)
(1.24319 0.58499 0)
(1.24936 0.586762 0)
(1.25548 0.587077 0)
(1.26129 0.585451 0)
(1.26647 0.581318 0)
(1.2706 0.574034 0)
(1.27313 0.56289 0)
(1.27344 0.547153 0)
(1.27084 0.526102 0)
(1.26461 0.499089 0)
(1.25413 0.465599 0)
(1.23893 0.425301 0)
(1.21884 0.378086 0)
(1.19415 0.324111 0)
(1.16546 0.263979 0)
(1.13287 0.199687 0)
(1.10623 0.141044 0)
(1.20687 0.552342 0)
(1.21116 0.557122 0)
(1.21567 0.561593 0)
(1.22035 0.565544 0)
(1.22515 0.568704 0)
(1.22998 0.570732 0)
(1.2347 0.571209 0)
(1.23912 0.56963 0)
(1.243 0.565399 0)
(1.24601 0.557835 0)
(1.24771 0.546185 0)
(1.24762 0.529655 0)
(1.24516 0.507447 0)
(1.23971 0.478822 0)
(1.2307 0.443161 0)
(1.21764 0.400034 0)
(1.20025 0.349286 0)
(1.17827 0.291225 0)
(1.151 0.227575 0)
(1.129 0.168523 0)
(1.18933 0.530532 0)
(1.19193 0.536218 0)
(1.19473 0.54174 0)
(1.19774 0.546918 0)
(1.20095 0.551521 0)
(1.20432 0.555257 0)
(1.2078 0.55776 0)
(1.21131 0.558586 0)
(1.21471 0.557196 0)
(1.21782 0.552957 0)
(1.22035 0.54514 0)
(1.22195 0.532934 0)
(1.22214 0.515469 0)
(1.22039 0.491861 0)
(1.21604 0.461275 0)
(1.20839 0.423009 0)
(1.19672 0.376609 0)
(1.17996 0.322103 0)
(1.15687 0.261077 0)
(1.13873 0.203827 0)
)
;

boundaryField
{
    zeroGradPlanes
    {
        type            zeroGradient;
    }
    inlet
    {
        type            fixedValue;
        value           uniform (1 0 0);
    }
    plate
    {
        type            noSlip;
    }
    frontAndBack
    {
        type            empty;
    }
}


// ************************************************************************* //
