/*--------------------------------*- C++ -*----------------------------------*\
| =========                 |                                                 |
| \\      /  F ield         | OpenFOAM: The Open Source CFD Toolbox           |
|  \\    /   O peration     | Version:  v1906                                 |
|   \\  /    A nd           | Web:      www.OpenFOAM.com                      |
|    \\/     M anipulation  |                                                 |
\*---------------------------------------------------------------------------*/
FoamFile
{
    version     2.0;
    format      ascii;
    class       volScalarField;
    location    "1000/baffle3DRegion";
    object      T;
}
// * * * * * * * * * * * * * * * * * * * * * * * * * * * * * * * * * * * * * //

dimensions      [0 0 0 1 0 0 0];


internalField   nonuniform List<scalar> 
800
(
372.511
378.997
385.219
391.177
396.87
402.299
407.462
412.36
416.993
421.36
425.462
429.297
432.867
436.171
439.208
441.979
444.483
446.721
448.692
450.396
451.833
453.004
453.906
454.542
454.91
455.011
454.844
454.41
453.708
452.739
451.501
449.996
448.222
446.181
443.872
441.295
438.449
435.335
431.954
428.304
424.386
420.199
415.744
411.021
406.03
400.77
395.242
389.446
383.381
377.048
364.673
371.375
377.805
383.962
389.847
395.46
400.801
405.87
410.667
415.192
419.445
423.426
427.136
430.574
433.74
436.634
439.256
441.607
443.687
445.494
447.031
448.295
449.288
450.01
450.46
450.638
450.545
450.181
449.545
448.637
447.458
446.007
444.285
442.292
440.027
437.49
434.682
431.602
428.251
424.628
420.734
416.568
412.131
407.422
402.441
397.189
391.665
385.87
379.803
373.464
357.291
364.126
370.686
376.971
382.981
388.716
394.176
399.362
404.273
408.909
413.271
417.358
421.171
424.71
427.974
430.964
433.68
436.122
438.29
440.183
441.803
443.148
444.22
445.017
445.54
445.79
445.765
445.467
444.894
444.048
442.927
441.533
439.865
437.922
435.706
433.216
430.451
427.413
424.1
420.513
416.652
412.517
408.108
403.424
398.466
393.233
387.726
381.945
375.888
369.557
353.04
359.916
366.519
372.848
378.903
384.684
390.192
395.426
400.387
405.073
409.487
413.626
417.493
421.085
424.404
427.45
430.222
432.72
434.945
436.897
438.575
439.98
441.111
441.969
442.553
442.865
442.903
442.667
442.159
441.377
440.321
438.993
437.391
435.516
433.368
430.946
428.252
425.284
422.044
418.53
414.743
410.683
406.35
401.743
396.864
391.712
386.287
380.589
374.618
368.375
350.497
357.401
364.032
370.389
376.474
382.287
387.826
393.092
398.086
402.807
407.255
411.43
415.332
418.962
422.318
425.402
428.213
430.752
433.018
435.011
436.731
438.178
439.353
440.255
440.885
441.242
441.326
441.137
440.676
439.942
438.936
437.656
436.105
434.28
432.183
429.813
427.171
424.256
421.068
417.607
413.874
409.869
405.59
401.039
396.215
391.118
385.749
380.107
374.192
368.004
348.858
355.779
362.428
368.804
374.909
380.741
386.3
391.588
396.604
401.348
405.819
410.019
413.947
417.602
420.986
424.099
426.939
429.508
431.805
433.83
435.583
437.066
438.276
439.215
439.883
440.279
440.403
440.257
439.839
439.149
438.189
436.957
435.454
433.68
431.635
429.318
426.731
423.873
420.743
417.343
413.672
409.729
405.516
401.032
396.277
391.252
385.955
380.388
374.549
368.441
347.551
354.454
361.086
367.445
373.533
379.349
384.893
390.166
395.167
399.896
404.355
408.542
412.458
416.103
419.477
422.58
425.412
427.973
430.264
432.284
434.034
435.514
436.723
437.662
438.331
438.73
438.86
438.72
438.31
437.631
436.682
435.464
433.978
432.222
430.198
427.905
425.343
422.513
419.415
416.049
412.416
408.514
404.345
399.909
395.206
390.236
384.999
379.496
373.727
367.691
346.306
353.115
359.653
365.918
371.912
377.634
383.083
388.261
393.167
397.802
402.164
406.255
410.074
413.622
416.898
419.902
422.635
425.097
427.287
429.206
430.854
432.23
433.335
434.169
434.731
435.023
435.044
434.793
434.272
433.48
432.417
431.083
429.478
427.603
425.458
423.042
420.355
417.398
414.17
410.673
406.905
402.867
398.559
393.981
389.133
384.016
378.628
372.971
367.045
360.849
345.114
351.796
358.206
364.343
370.208
375.8
381.119
386.166
390.941
395.443
399.672
403.628
407.312
410.723
413.861
416.727
419.319
421.639
423.685
425.459
426.96
428.187
429.142
429.823
430.232
430.366
430.228
429.816
429.131
428.172
426.94
425.434
423.654
421.601
419.273
416.672
413.797
410.647
407.224
403.526
399.553
395.306
390.785
385.988
380.917
375.571
369.949
364.053
357.88
351.432
344.317
350.896
357.203
363.238
369
374.489
379.706
384.65
389.322
393.721
397.847
401.701
405.282
408.59
411.625
414.388
416.878
419.094
421.038
422.709
424.107
425.232
426.083
426.662
426.968
427
426.759
426.245
425.458
424.397
423.063
421.455
419.574
417.42
414.992
412.291
409.315
406.067
402.544
398.748
394.678
390.334
385.716
380.825
375.659
370.22
364.506
358.518
352.257
345.72
343.915
350.42
356.653
362.613
368.301
373.717
378.86
383.731
388.33
392.656
396.71
400.491
404
407.236
410.2
412.892
415.311
417.457
419.331
420.933
422.262
423.318
424.102
424.613
424.851
424.817
424.511
423.931
423.08
421.955
420.558
418.888
416.945
414.73
412.241
409.481
406.447
403.141
399.562
395.71
391.585
387.188
382.518
377.575
372.359
366.87
361.109
355.075
348.768
342.188
343.797
350.241
356.413
362.312
367.939
373.295
378.378
383.189
387.727
391.994
395.988
399.711
403.161
406.339
409.244
411.878
414.24
416.329
418.146
419.691
420.964
421.965
422.693
423.149
423.333
423.245
422.885
422.252
421.348
420.171
418.721
417
415.006
412.74
410.202
407.392
404.309
400.954
397.327
393.427
389.256
384.812
380.095
375.106
369.845
364.312
358.506
352.428
346.078
339.455
343.835
350.215
356.323
362.16
367.725
373.019
378.041
382.791
387.27
391.478
395.414
399.078
402.471
405.593
408.443
411.022
413.329
415.364
417.128
418.62
419.841
420.791
421.468
421.874
422.009
421.872
421.463
420.783
419.831
418.607
417.112
415.345
413.307
410.996
408.414
405.561
402.435
399.038
395.369
391.428
387.215
382.731
377.974
372.946
367.646
362.074
356.23
350.114
343.727
337.067
343.44
349.743
355.778
361.543
367.038
372.265
377.222
381.909
386.326
390.474
394.353
397.961
401.3
404.369
407.168
409.696
411.955
413.944
415.662
417.11
418.288
419.196
419.833
420.199
420.295
420.121
419.676
418.96
417.974
416.717
415.188
413.39
411.32
408.979
406.367
403.485
400.331
396.906
393.21
389.242
385.004
380.494
375.712
370.66
365.336
359.74
353.873
347.735
341.325
334.643
340.298
346.58
352.596
358.345
363.829
369.046
373.996
378.678
383.094
387.241
391.121
394.732
398.074
401.148
403.954
406.49
408.757
410.754
412.482
413.941
415.129
416.048
416.697
417.075
417.183
417.021
416.588
415.885
414.911
413.666
412.151
410.365
408.308
405.98
403.381
400.511
397.37
393.958
390.275
386.321
382.095
377.599
372.831
367.792
362.483
356.902
351.05
344.926
338.532
331.867
330.556
337.185
343.533
349.599
355.385
360.89
366.114
371.059
375.724
380.109
384.215
388.041
391.589
394.858
397.849
400.562
402.996
405.153
407.032
408.633
409.957
411.004
411.773
412.265
412.481
412.419
412.081
411.466
410.575
409.407
407.963
406.243
404.247
401.974
399.425
396.6
393.499
390.122
386.47
382.541
378.336
373.856
369.1
364.068
358.76
353.176
347.317
341.181
334.77
328.083
)
;

boundaryField
{
    bottom
    {
        type            compressible::thermalBaffle;
        refValue        nonuniform List<scalar> 
16
(
306.462
306.675
306.662
306.584
306.536
306.543
306.568
306.639
306.729
306.855
307.023
307.235
307.543
307.732
307.089
303.457
)
;
        refGradient     uniform 0;
        valueFraction   nonuniform List<scalar> 
16
(
0.0511007
0.0601282
0.0702175
0.0769563
0.0816249
0.0849975
0.0875405
0.089262
0.0905867
0.0914483
0.0918534
0.0918435
0.0916349
0.0920342
0.0985666
0.127522
)
;
        value           nonuniform List<scalar> 
16
(
369.271
361.255
353.736
349.461
346.897
345.245
343.947
342.744
341.616
340.872
340.507
340.419
340.488
340.129
336.996
327.082
)
;
        Tnbr            T;
        qrNbr           none;
        qr              none;
        thermalInertia  false;
        thicknessLayers 0();
        kappaLayers     0();
        kappaMethod     solidThermo;
        kappa           none;
        alphaAni        none;
    }
    top
    {
        type            compressible::thermalBaffle;
        refValue        nonuniform List<scalar> 
16
(
310.481
310.75
311.264
311.96
312.751
314.098
315.868
313.481
308.22
306.082
305.192
304.51
303.967
303.457
302.924
302.221
)
;
        refGradient     uniform 0;
        valueFraction   nonuniform List<scalar> 
16
(
0.0495849
0.0527023
0.0566598
0.0577556
0.0584627
0.0586995
0.0607954
0.0682466
0.0777973
0.0859043
0.0926127
0.0986538
0.104705
0.111477
0.119826
0.134612
)
;
        value           nonuniform List<scalar> 
16
(
373.405
370.078
366.237
365.112
364.773
365.252
364.506
357.529
348.004
342.279
338.735
335.987
333.583
331.151
328.385
324.59
)
;
        Tnbr            T;
        qrNbr           none;
        qr              none;
        thermalInertia  false;
        thicknessLayers 0();
        kappaLayers     0();
        kappaMethod     solidThermo;
        kappa           none;
        alphaAni        none;
    }
    side
    {
        type            zeroGradient;
    }
}


// ************************************************************************* //
