/*--------------------------------*- C++ -*----------------------------------*\
| =========                 |                                                 |
| \\      /  F ield         | OpenFOAM: The Open Source CFD Toolbox           |
|  \\    /   O peration     | Version:  v1906                                 |
|   \\  /    A nd           | Web:      www.OpenFOAM.com                      |
|    \\/     M anipulation  |                                                 |
\*---------------------------------------------------------------------------*/
FoamFile
{
    version     2.0;
    format      ascii;
    class       volScalarField;
    location    "0.3";
    object      p;
}
// * * * * * * * * * * * * * * * * * * * * * * * * * * * * * * * * * * * * * //

dimensions      [0 2 -2 0 0 0 0];


internalField   nonuniform List<scalar> 
800
(
2.77269e-06
0.000236064
0.00393951
0.00964104
0.0163374
0.0238282
0.0321098
0.0412132
0.0512227
0.0622922
0.0746597
0.0886767
0.104869
0.12408
0.147659
0.176997
0.213371
0.272324
0.40886
0.502047
-0.0135824
-0.0149855
-0.0132117
-0.00922276
-0.00402875
0.00207779
0.00899554
0.0166669
0.0250869
0.0343017
0.0444004
0.0555097
0.0677804
0.0813755
0.0964379
0.11244
0.126031
0.133857
0.145632
0.0930968
-0.0343551
-0.036403
-0.0358854
-0.0333592
-0.0296711
-0.0251248
-0.0198777
-0.0140613
-0.00778001
-0.00112597
0.0057905
0.0127962
0.0195748
0.0255263
0.029534
0.0293304
0.0197603
-0.0077025
-0.0595617
-0.162717
-0.057258
-0.0590042
-0.0588795
-0.0572003
-0.0545812
-0.0512793
-0.0474668
-0.0433166
-0.0390039
-0.034727
-0.0307475
-0.0274514
-0.0254468
-0.0257237
-0.0298943
-0.0406069
-0.0623262
-0.10156
-0.164857
-0.264401
-0.081594
-0.0829015
-0.0829248
-0.0818402
-0.0800755
-0.0778429
-0.0753181
-0.0726979
-0.070204
-0.0681053
-0.0667586
-0.0666678
-0.0685711
-0.0735683
-0.0832929
-0.100137
-0.127516
-0.169728
-0.23096
-0.316656
-0.106995
-0.107911
-0.108009
-0.107389
-0.106346
-0.105059
-0.103701
-0.102479
-0.101642
-0.101496
-0.102444
-0.105034
-0.110025
-0.118475
-0.131839
-0.152069
-0.181652
-0.223338
-0.279382
-0.351393
-0.133043
-0.133604
-0.133726
-0.133469
-0.133031
-0.132563
-0.132231
-0.132244
-0.132855
-0.134379
-0.137227
-0.141936
-0.149215
-0.159998
-0.175485
-0.197164
-0.226743
-0.265878
-0.315594
-0.375795
-0.159403
-0.159644
-0.159759
-0.159789
-0.159856
-0.160086
-0.160638
-0.161707
-0.163538
-0.166434
-0.170783
-0.177074
-0.185928
-0.19812
-0.214586
-0.236401
-0.264676
-0.300337
-0.343717
-0.394157
-0.185816
-0.185773
-0.185866
-0.186126
-0.186613
-0.187434
-0.188732
-0.190684
-0.193514
-0.197499
-0.202983
-0.21039
-0.220235
-0.233133
-0.249781
-0.270923
-0.297247
-0.329219
-0.366815
-0.409267
-0.21207
-0.211773
-0.211835
-0.212282
-0.21312
-0.214437
-0.216357
-0.219035
-0.222665
-0.227487
-0.233793
-0.241932
-0.252316
-0.26541
-0.281714
-0.301719
-0.325826
-0.354222
-0.386716
-0.422589
-0.237986
-0.237459
-0.237486
-0.238087
-0.239221
-0.240955
-0.243392
-0.246662
-0.250922
-0.25637
-0.263242
-0.271814
-0.282399
-0.295337
-0.310967
-0.329596
-0.35143
-0.376494
-0.404531
-0.434918
-0.263412
-0.262672
-0.262662
-0.263396
-0.264787
-0.266879
-0.269753
-0.273506
-0.27826
-0.284168
-0.29141
-0.300192
-0.310742
-0.32329
-0.338056
-0.35521
-0.374831
-0.39685
-0.420992
-0.446738
-0.288215
-0.287271
-0.287226
-0.288084
-0.289712
-0.292127
-0.295382
-0.299543
-0.304692
-0.310938
-0.318409
-0.327247
-0.337603
-0.349625
-0.363433
-0.379103
-0.396627
-0.415886
-0.436611
-0.45837
-0.312274
-0.311124
-0.311051
-0.312044
-0.313912
-0.31664
-0.320252
-0.324777
-0.33026
-0.336766
-0.344373
-0.35317
-0.363242
-0.374667
-0.387492
-0.401723
-0.417295
-0.43406
-0.451763
-0.470045
-0.33546
-0.334095
-0.334015
-0.335179
-0.33732
-0.340384
-0.344359
-0.349238
-0.355029
-0.361756
-0.369454
-0.378161
-0.38791
-0.398721
-0.410586
-0.423455
-0.437229
-0.451739
-0.466749
-0.481954
-0.357607
-0.356006
-0.35596
-0.357366
-0.35985
-0.363304
-0.367681
-0.372937
-0.379044
-0.385989
-0.393767
-0.402377
-0.411806
-0.422027
-0.432986
-0.444596
-0.456726
-0.469198
-0.481789
-0.494234
-0.378492
-0.376618
-0.376674
-0.378435
-0.381372
-0.385309
-0.39016
-0.395844
-0.402303
-0.409492
-0.417376
-0.425916
-0.435064
-0.444753
-0.454893
-0.465364
-0.476012
-0.486649
-0.497059
-0.507009
-0.39793
-0.395901
-0.396284
-0.39864
-0.402234
-0.40682
-0.412274
-0.41849
-0.425384
-0.43289
-0.440946
-0.449487
-0.458433
-0.467684
-0.477117
-0.486585
-0.495909
-0.50489
-0.513315
-0.520967
-0.415415
-0.414014
-0.415452
-0.418931
-0.423559
-0.429061
-0.435313
-0.442205
-0.449647
-0.457564
-0.465879
-0.474503
-0.48333
-0.492232
-0.501052
-0.509611
-0.517704
-0.525112
-0.53161
-0.536987
-0.426705
-0.426645
-0.429579
-0.434288
-0.439876
-0.44612
-0.452943
-0.460267
-0.46802
-0.476127
-0.48451
-0.493067
-0.501675
-0.510182
-0.518406
-0.526137
-0.533143
-0.53918
-0.544004
-0.547397
-0.416158
-0.973323
-1.06996
-1.04451
-1.00636
-0.971293
-0.941643
-0.917477
-0.897841
-0.881709
-0.868312
-0.857128
-0.84782
-0.840186
-0.834122
-0.829584
-0.826563
-0.825049
-0.824605
-0.823724
-0.387974
-0.722684
-0.846195
-0.886585
-0.898179
-0.895913
-0.887473
-0.877205
-0.866979
-0.857498
-0.849019
-0.841627
-0.835343
-0.830179
-0.826154
-0.823282
-0.821595
-0.821219
-0.821852
-0.821045
-0.406927
-0.612182
-0.727967
-0.789564
-0.82198
-0.836877
-0.841775
-0.841479
-0.838652
-0.834732
-0.830519
-0.826475
-0.822876
-0.819904
-0.817689
-0.81632
-0.815894
-0.816724
-0.818644
-0.817943
-0.421616
-0.566975
-0.66655
-0.729259
-0.767936
-0.790737
-0.803348
-0.809721
-0.812378
-0.812893
-0.812259
-0.811119
-0.809897
-0.808889
-0.808315
-0.808335
-0.809117
-0.811156
-0.814427
-0.813979
-0.430673
-0.539895
-0.623663
-0.682892
-0.723622
-0.750844
-0.768528
-0.779748
-0.786694
-0.790879
-0.793337
-0.794788
-0.795737
-0.796556
-0.797531
-0.79888
-0.800836
-0.804052
-0.808644
-0.808518
-0.437902
-0.522338
-0.592552
-0.646736
-0.687088
-0.71633
-0.737085
-0.751636
-0.761782
-0.768867
-0.773877
-0.777538
-0.780388
-0.782837
-0.785215
-0.787781
-0.790817
-0.795103
-0.800884
-0.801039
-0.443918
-0.51119
-0.570296
-0.618834
-0.657169
-0.686625
-0.708834
-0.725407
-0.737741
-0.746961
-0.753951
-0.759393
-0.763817
-0.767645
-0.771225
-0.774844
-0.778811
-0.784002
-0.79076
-0.791064
-0.449335
-0.504203
-0.554176
-0.597065
-0.632481
-0.66094
-0.683388
-0.700907
-0.714532
-0.725167
-0.733564
-0.740333
-0.745971
-0.750886
-0.755429
-0.75989
-0.764593
-0.770477
-0.77794
-0.77819
-0.454746
-0.500141
-0.542475
-0.579986
-0.612032
-0.638693
-0.660465
-0.678044
-0.692172
-0.703545
-0.712781
-0.720408
-0.726868
-0.732543
-0.737766
-0.742821
-0.748025
-0.75435
-0.762203
-0.762142
-0.460463
-0.498317
-0.534169
-0.566664
-0.595142
-0.619473
-0.63988
-0.656793
-0.670729
-0.682213
-0.691737
-0.699742
-0.706613
-0.71269
-0.718278
-0.723642
-0.72908
-0.735566
-0.743469
-0.742808
-0.466628
-0.498295
-0.528565
-0.556423
-0.581286
-0.602947
-0.62148
-0.637144
-0.650293
-0.661318
-0.670608
-0.67852
-0.685381
-0.691485
-0.697103
-0.702467
-0.707847
-0.714199
-0.721804
-0.720245
-0.473317
-0.499776
-0.525169
-0.548748
-0.570037
-0.588827
-0.605121
-0.619076
-0.630941
-0.641009
-0.649583
-0.656955
-0.663394
-0.66915
-0.674455
-0.679502
-0.684527
-0.690447
-0.697414
-0.694671
-0.480578
-0.502553
-0.523623
-0.543243
-0.561047
-0.576857
-0.590657
-0.602552
-0.612727
-0.62141
-0.628843
-0.635263
-0.640894
-0.645942
-0.6506
-0.655022
-0.659402
-0.664608
-0.670626
-0.666443
-0.488454
-0.50649
-0.523673
-0.539608
-0.55403
-0.566811
-0.577941
-0.58751
-0.59567
-0.602611
-0.608534
-0.613638
-0.61811
-0.62212
-0.625824
-0.629335
-0.632805
-0.637043
-0.641845
-0.636012
-0.496998
-0.511509
-0.525141
-0.537616
-0.548757
-0.558487
-0.566825
-0.573863
-0.579747
-0.584649
-0.588749
-0.592222
-0.595228
-0.597909
-0.600388
-0.602739
-0.605073
-0.608136
-0.611514
-0.603892
-0.506248
-0.517549
-0.527889
-0.537083
-0.545025
-0.551695
-0.557147
-0.561494
-0.564892
-0.567512
-0.56953
-0.571109
-0.572392
-0.573501
-0.574531
-0.575525
-0.576551
-0.578294
-0.580127
-0.570677
-0.516261
-0.524601
-0.531853
-0.537906
-0.542718
-0.546325
-0.548822
-0.550356
-0.551103
-0.55125
-0.55098
-0.550455
-0.549814
-0.549165
-0.548582
-0.548079
-0.547691
-0.548043
-0.548295
-0.537048
-0.527644
-0.533178
-0.537452
-0.540414
-0.542085
-0.542554
-0.541968
-0.540514
-0.538404
-0.535851
-0.533058
-0.530198
-0.527413
-0.524806
-0.522438
-0.520298
-0.518399
-0.517313
-0.515971
-0.502892
-0.541061
-0.543699
-0.54483
-0.544463
-0.542681
-0.539637
-0.535543
-0.530648
-0.525216
-0.519505
-0.513753
-0.508159
-0.502878
-0.498013
-0.493618
-0.489668
-0.486169
-0.483629
-0.480776
-0.466497
-0.549182
-0.549246
-0.547559
-0.544179
-0.539253
-0.533003
-0.525714
-0.517703
-0.509299
-0.500815
-0.49253
-0.48467
-0.477405
-0.470839
-0.46501
-0.459878
-0.455466
-0.452146
-0.448412
-0.436508
)
;

boundaryField
{
    zeroGradPlanes
    {
        type            zeroGradient;
    }
    inlet
    {
        type            zeroGradient;
    }
    plate
    {
        type            zeroGradient;
    }
    frontAndBack
    {
        type            empty;
    }
}


// ************************************************************************* //
