/*--------------------------------*- C++ -*----------------------------------*\
| =========                 |                                                 |
| \\      /  F ield         | OpenFOAM: The Open Source CFD Toolbox           |
|  \\    /   O peration     | Version:  v1906                                 |
|   \\  /    A nd           | Web:      www.OpenFOAM.com                      |
|    \\/     M anipulation  |                                                 |
\*---------------------------------------------------------------------------*/
FoamFile
{
    version     2.0;
    format      ascii;
    class       surfaceScalarField;
    location    "0.3";
    object      phi;
}
// * * * * * * * * * * * * * * * * * * * * * * * * * * * * * * * * * * * * * //

dimensions      [0 3 -1 0 0 0 0];
oriented        oriented;


internalField   nonuniform List<scalar> 
1540
(
4.99057e-05
4.29906e-07
4.97341e-05
1.39021e-06
4.95241e-05
2.44385e-06
4.92864e-05
3.58333e-06
4.90271e-05
4.80345e-06
4.87492e-05
6.10493e-06
4.84542e-05
7.49361e-06
4.81418e-05
8.98011e-06
4.78111e-05
1.05799e-05
4.74596e-05
1.23138e-05
4.70836e-05
1.42081e-05
4.66776e-05
1.62945e-05
4.62328e-05
1.86073e-05
4.57345e-05
2.11774e-05
4.51582e-05
2.40155e-05
4.44614e-05
2.70746e-05
4.35558e-05
3.01864e-05
4.21657e-05
3.29478e-05
3.95306e-05
3.42788e-05
3.08244e-05
3.48794e-05
4.99268e-05
5.0311e-07
4.97758e-05
1.54123e-06
4.95785e-05
2.64113e-06
4.93513e-05
3.81054e-06
4.91026e-05
5.05214e-06
4.88369e-05
6.37063e-06
4.85564e-05
7.77404e-06
4.82623e-05
9.2742e-06
4.79549e-05
1.08874e-05
4.76339e-05
1.26347e-05
4.72992e-05
1.45428e-05
4.69507e-05
1.6643e-05
4.65891e-05
1.89689e-05
4.62167e-05
2.15498e-05
4.58385e-05
2.43936e-05
4.54629e-05
2.74502e-05
4.51096e-05
3.05397e-05
4.48309e-05
3.32265e-05
4.46089e-05
3.45009e-05
3.19809e-05
4.34525e-05
4.99492e-05
5.53911e-07
4.98254e-05
1.66503e-06
4.96537e-05
2.81282e-06
4.94506e-05
4.01363e-06
4.92262e-05
5.27653e-06
4.89868e-05
6.61002e-06
4.87366e-05
8.02424e-06
4.84788e-05
9.53206e-06
4.82163e-05
1.11499e-05
4.79528e-05
1.28983e-05
4.76936e-05
1.4802e-05
4.74472e-05
1.68894e-05
4.72274e-05
1.91887e-05
4.70566e-05
2.17205e-05
4.69707e-05
2.44796e-05
4.70224e-05
2.73986e-05
4.72808e-05
3.02813e-05
4.7808e-05
3.26992e-05
4.84964e-05
3.38126e-05
3.21138e-05
4.83635e-05
4.99641e-05
5.89784e-07
4.98683e-05
1.76082e-06
4.9729e-05
2.95214e-06
4.95599e-05
4.18277e-06
4.93711e-05
5.46532e-06
4.91702e-05
6.81091e-06
4.89632e-05
8.23124e-06
4.87556e-05
9.73966e-06
4.85534e-05
1.13521e-05
4.83644e-05
1.30873e-05
4.81993e-05
1.49671e-05
4.80744e-05
1.70144e-05
4.80134e-05
1.92497e-05
4.80517e-05
2.16821e-05
4.82392e-05
2.42921e-05
4.86391e-05
2.69986e-05
4.93135e-05
2.9607e-05
5.02754e-05
3.17373e-05
5.1344e-05
3.2744e-05
3.16875e-05
5.17703e-05
4.99749e-05
6.14886e-07
4.99047e-05
1.83105e-06
4.97992e-05
3.05766e-06
4.96687e-05
4.31326e-06
4.95223e-05
5.61168e-06
4.9368e-05
6.96525e-06
4.92129e-05
8.38629e-06
4.90646e-05
9.88801e-06
4.89315e-05
1.14851e-05
4.88248e-05
1.3194e-05
4.87594e-05
1.50325e-05
4.87563e-05
1.70174e-05
4.88449e-05
1.91611e-05
4.90649e-05
2.14621e-05
4.94669e-05
2.389e-05
5.01065e-05
2.63591e-05
5.10229e-05
2.86906e-05
5.21907e-05
3.05695e-05
5.34166e-05
3.1518e-05
3.09436e-05
5.41605e-05
4.99836e-05
6.31305e-07
4.9936e-05
1.87859e-06
4.98631e-05
3.13058e-06
4.97722e-05
4.40414e-06
4.96711e-05
5.71285e-06
4.95672e-05
7.06911e-06
4.94685e-05
8.48504e-06
4.93834e-05
9.97303e-06
4.93224e-05
1.15461e-05
4.92986e-05
1.32179e-05
4.93292e-05
1.50018e-05
4.94375e-05
1.69092e-05
4.96539e-05
1.89448e-05
5.00169e-05
2.10992e-05
5.05709e-05
2.3336e-05
5.1358e-05
2.55721e-05
5.23962e-05
2.76524e-05
5.36389e-05
2.93268e-05
5.49081e-05
3.02487e-05
3.00357e-05
5.5816e-05
4.99908e-05
6.40474e-07
4.99633e-05
1.90612e-06
4.99207e-05
3.17321e-06
4.98682e-05
4.45664e-06
4.9812e-05
5.76901e-06
4.97591e-05
7.12202e-06
4.97172e-05
8.52694e-06
4.96953e-05
9.99488e-06
4.97046e-05
1.15369e-05
4.97589e-05
1.31636e-05
4.98762e-05
1.48845e-05
5.00795e-05
1.67059e-05
5.03976e-05
1.86266e-05
5.08645e-05
2.06323e-05
5.1516e-05
2.26844e-05
5.23807e-05
2.47074e-05
5.34614e-05
2.65718e-05
5.47042e-05
2.8084e-05
5.59586e-05
2.89943e-05
2.9048e-05
5.69464e-05
4.9997e-05
6.43497e-07
4.99871e-05
1.91605e-06
4.9972e-05
3.18831e-06
4.99553e-05
4.47329e-06
4.9942e-05
5.78232e-06
4.9938e-05
7.12599e-06
4.99506e-05
8.51434e-06
4.99886e-05
9.95689e-06
5.00629e-05
1.14626e-05
5.01872e-05
1.30393e-05
5.03788e-05
1.4693e-05
5.06589e-05
1.64257e-05
5.1053e-05
1.82325e-05
5.15894e-05
2.00959e-05
5.22952e-05
2.19787e-05
5.31881e-05
2.38144e-05
5.42617e-05
2.54981e-05
5.5464e-05
2.68817e-05
5.66736e-05
2.77848e-05
2.80315e-05
5.769e-05
5.00023e-05
6.41242e-07
5.00078e-05
1.9105e-06
5.00174e-05
3.1787e-06
5.00335e-05
4.45723e-06
5.00597e-05
5.75609e-06
5.01011e-05
7.08462e-06
5.0164e-05
8.45146e-06
5.02564e-05
9.86445e-06
5.03885e-05
1.13304e-05
5.0573e-05
1.28548e-05
5.08254e-05
1.44405e-05
5.11645e-05
1.60866e-05
5.16117e-05
1.77853e-05
5.21895e-05
1.95181e-05
5.29175e-05
2.12507e-05
5.38056e-05
2.29263e-05
5.48429e-05
2.44608e-05
5.59831e-05
2.57415e-05
5.71312e-05
2.66367e-05
2.70212e-05
5.81415e-05
5.00068e-05
6.34412e-07
5.0026e-05
1.89132e-06
5.00576e-05
3.14706e-06
5.01032e-05
4.41172e-06
5.01651e-05
5.69412e-06
5.02474e-05
7.00234e-06
5.03553e-05
8.34359e-06
5.04957e-05
9.72406e-06
5.06775e-05
1.11486e-05
5.09117e-05
1.26205e-05
5.1212e-05
1.41403e-05
5.15939e-05
1.57047e-05
5.20749e-05
1.73043e-05
5.26722e-05
1.89208e-05
5.33996e-05
2.05233e-05
5.42616e-05
2.20643e-05
5.52458e-05
2.34766e-05
5.63132e-05
2.46742e-05
5.73902e-05
2.55597e-05
2.60412e-05
5.83702e-05
5.00109e-05
6.23559e-07
5.00421e-05
1.86003e-06
5.00935e-05
3.09572e-06
5.01654e-05
4.33984e-06
5.02593e-05
5.60023e-06
5.03778e-05
6.88378e-06
5.05251e-05
8.19634e-06
5.07066e-05
9.54254e-06
5.09297e-05
1.09255e-05
5.12037e-05
1.23465e-05
5.15398e-05
1.38043e-05
5.19506e-05
1.52939e-05
5.24498e-05
1.68051e-05
5.30501e-05
1.83204e-05
5.37609e-05
1.98126e-05
5.45834e-05
2.12418e-05
5.55054e-05
2.25546e-05
5.64948e-05
2.36848e-05
5.74954e-05
2.45591e-05
2.51085e-05
5.84281e-05
5.00145e-05
6.09074e-07
5.00568e-05
1.81772e-06
5.0126e-05
3.02653e-06
5.02216e-05
4.24424e-06
5.03439e-05
5.47792e-06
5.04943e-05
6.7334e-06
5.06754e-05
8.01524e-06
5.08914e-05
9.32657e-06
5.11479e-05
1.0669e-05
5.14524e-05
1.2042e-05
5.18136e-05
1.3443e-05
5.22416e-05
1.48659e-05
5.27465e-05
1.63001e-05
5.33378e-05
1.77292e-05
5.40211e-05
1.91292e-05
5.4796e-05
2.04669e-05
5.56511e-05
2.16994e-05
5.65608e-05
2.27752e-05
5.74819e-05
2.3638e-05
2.42347e-05
5.83557e-05
5.00179e-05
5.91145e-07
5.00706e-05
1.76502e-06
5.01564e-05
2.94071e-06
5.02737e-05
4.12695e-06
5.04215e-05
5.33018e-06
5.05996e-05
6.55523e-06
5.08095e-05
7.80537e-06
5.10537e-05
9.08235e-06
5.13364e-05
1.03863e-05
5.16631e-05
1.17154e-05
5.20404e-05
1.30657e-05
5.24759e-05
1.44304e-05
5.2977e-05
1.5799e-05
5.35502e-05
1.71561e-05
5.41989e-05
1.84805e-05
5.49213e-05
1.97445e-05
5.57077e-05
2.0913e-05
5.65375e-05
2.19454e-05
5.7378e-05
2.27976e-05
2.34275e-05
5.81851e-05
5.00215e-05
5.69691e-07
5.00845e-05
1.70193e-06
5.01865e-05
2.83879e-06
5.03241e-05
3.98934e-06
5.04948e-05
5.15945e-06
5.06972e-05
6.35282e-06
5.09312e-05
7.57139e-06
5.1198e-05
8.81551e-06
5.15004e-05
1.00839e-05
5.1842e-05
1.13737e-05
5.22278e-05
1.26799e-05
5.26631e-05
1.39952e-05
5.3153e-05
1.53091e-05
5.37018e-05
1.66073e-05
5.43111e-05
1.78712e-05
5.49788e-05
1.90768e-05
5.56962e-05
2.01956e-05
5.64473e-05
2.11943e-05
5.72071e-05
2.20378e-05
2.2692e-05
5.79426e-05
5.00254e-05
5.44256e-07
5.00996e-05
1.62772e-06
5.02179e-05
2.72052e-06
5.0375e-05
3.83222e-06
5.05667e-05
4.96775e-06
5.07902e-05
6.12938e-06
5.1044e-05
7.31755e-06
5.13284e-05
8.53115e-06
5.16446e-05
9.76769e-06
5.19951e-05
1.10232e-05
5.23831e-05
1.22919e-05
5.28121e-05
1.35662e-05
5.32854e-05
1.48357e-05
5.38056e-05
1.60872e-05
5.4373e-05
1.73037e-05
5.49851e-05
1.84647e-05
5.56348e-05
1.95459e-05
5.63092e-05
2.05198e-05
5.69895e-05
2.13575e-05
2.20305e-05
5.7651e-05
5.00304e-05
5.13866e-07
5.01173e-05
1.54081e-06
5.02527e-05
2.58508e-06
5.04289e-05
3.65609e-06
5.06396e-05
4.75698e-06
5.0881e-05
5.88803e-06
5.11506e-05
7.04791e-06
5.14478e-05
8.23401e-06
5.17728e-05
9.44265e-06
5.2127e-05
1.0669e-05
5.25123e-05
1.19067e-05
5.29306e-05
1.31479e-05
5.33838e-05
1.43825e-05
5.3873e-05
1.55979e-05
5.43978e-05
1.67789e-05
5.49553e-05
1.79072e-05
5.55395e-05
1.89617e-05
5.61405e-05
1.99189e-05
5.67439e-05
2.07541e-05
2.14431e-05
5.73313e-05
5.00371e-05
4.76721e-07
5.01392e-05
1.43873e-06
5.02929e-05
2.43142e-06
5.04872e-05
3.46177e-06
5.07146e-05
4.52955e-06
5.09704e-05
5.6323e-06
5.12516e-05
6.76664e-06
5.15571e-05
7.92851e-06
5.18866e-05
9.11321e-06
5.22404e-05
1.03152e-05
5.26192e-05
1.15278e-05
5.30241e-05
1.27431e-05
5.34555e-05
1.39511e-05
5.39134e-05
1.514e-05
5.43967e-05
1.62956e-05
5.49025e-05
1.74015e-05
5.54256e-05
1.84386e-05
5.5958e-05
1.93864e-05
5.6489e-05
2.02231e-05
2.09271e-05
5.7005e-05
5.00477e-05
4.28988e-07
5.01678e-05
1.31868e-06
5.03396e-05
2.2596e-06
5.05497e-05
3.25164e-06
5.07901e-05
4.2892e-06
5.10559e-05
5.36651e-06
5.13444e-05
6.47814e-06
5.16541e-05
7.6188e-06
5.19843e-05
8.78301e-06
5.23347e-05
9.96481e-06
5.27052e-05
1.11573e-05
5.30956e-05
1.23526e-05
5.35057e-05
1.3541e-05
5.39344e-05
1.47113e-05
5.43799e-05
1.58501e-05
5.48392e-05
1.69421e-05
5.53078e-05
1.797e-05
5.57794e-05
1.89149e-05
5.62456e-05
1.97569e-05
2.04762e-05
5.66966e-05
5.0065e-05
3.63952e-07
5.02037e-05
1.18005e-06
5.03901e-05
2.07319e-06
5.06108e-05
3.03094e-06
5.08586e-05
4.04142e-06
5.11293e-05
5.09571e-06
5.14207e-05
6.18674e-06
5.17312e-05
7.30832e-06
5.20597e-05
8.45452e-06
5.24054e-05
9.61911e-06
5.27675e-05
1.07952e-05
5.31451e-05
1.1975e-05
5.3537e-05
1.31491e-05
5.39415e-05
1.43068e-05
5.43563e-05
1.54353e-05
5.47782e-05
1.65202e-05
5.52031e-05
1.75451e-05
5.56256e-05
1.84923e-05
5.60395e-05
1.9343e-05
2.00784e-05
5.64372e-05
5.00813e-05
5.02347e-05
5.0428e-05
5.06523e-05
5.0902e-05
5.11738e-05
5.14653e-05
5.1775e-05
5.21015e-05
5.24436e-05
5.28002e-05
5.31697e-05
5.35505e-05
5.39404e-05
5.43368e-05
5.47363e-05
5.51349e-05
5.5528e-05
5.59102e-05
5.62754e-05
1.92308e-05
1.56486e-05
1.18747e-05
7.35612e-06
8.32307e-06
3.55165e-06
6.45568e-06
1.86738e-06
5.37124e-06
1.08444e-06
4.67715e-06
6.94086e-07
4.19427e-06
4.82884e-07
3.83683e-06
3.57437e-07
3.56121e-06
2.75621e-07
3.34349e-06
2.17726e-07
3.1695e-06
1.73986e-07
3.03029e-06
1.39216e-07
2.91978e-06
1.10508e-07
2.83354e-06
8.62364e-08
2.76792e-06
6.56269e-08
2.71933e-06
4.85854e-08
2.68359e-06
3.5743e-08
2.65517e-06
2.84152e-08
2.62914e-06
2.603e-08
2.11791e-08
3.61552e-05
2.29459e-05
2.8883e-05
1.46283e-05
2.33199e-05
9.11475e-06
1.93629e-05
5.82436e-06
1.65676e-05
3.8797e-06
1.45538e-05
2.70791e-06
1.30605e-05
1.97617e-06
1.19212e-05
1.49678e-06
1.1031e-05
1.16585e-06
1.03232e-05
9.25534e-07
9.75436e-06
7.42781e-07
9.29547e-06
5.98105e-07
8.92622e-06
4.79758e-07
8.63172e-06
3.80732e-07
8.40014e-06
2.97212e-07
8.22093e-06
2.27797e-07
8.08353e-06
1.73138e-07
7.97664e-06
1.35309e-07
7.88917e-06
1.13501e-07
9.83374e-08
4.49261e-05
2.63832e-05
3.98374e-05
1.9717e-05
3.4744e-05
1.42082e-05
3.03574e-05
1.02109e-05
2.68005e-05
7.43665e-06
2.39759e-05
5.53253e-06
2.17372e-05
4.21482e-06
1.99511e-05
3.28287e-06
1.85128e-05
2.60417e-06
1.73447e-05
2.09363e-06
1.63907e-05
1.69682e-06
1.561e-05
1.37877e-06
1.49728e-05
1.11693e-06
1.44565e-05
8.97065e-07
1.40429e-05
7.1084e-07
1.37162e-05
5.54448e-07
1.34615e-05
4.27812e-07
1.32633e-05
3.33524e-07
1.31047e-05
2.72091e-07
2.36e-07
5.02001e-05
2.79534e-05
4.69489e-05
2.29683e-05
4.29882e-05
1.81688e-05
3.90403e-05
1.41587e-05
3.54581e-05
1.10189e-05
3.23569e-05
8.63369e-06
2.97329e-05
6.83883e-06
2.7534e-05
5.48175e-06
2.56969e-05
4.44126e-06
2.41627e-05
3.62789e-06
2.28816e-05
2.97785e-06
2.18139e-05
2.44645e-06
2.0928e-05
2.0029e-06
2.01984e-05
1.6266e-06
1.96045e-05
1.3048e-06
1.91278e-05
1.03107e-06
1.87512e-05
8.04457e-07
1.84563e-05
6.28418e-07
1.82218e-05
5.06574e-07
4.36934e-07
5.35982e-05
2.85157e-05
5.16653e-05
2.49012e-05
4.88417e-05
2.09925e-05
4.56486e-05
1.73518e-05
4.24529e-05
1.42146e-05
3.94621e-05
1.16245e-05
3.67694e-05
9.53156e-06
3.43991e-05
7.85202e-06
3.23402e-05
6.50018e-06
3.05665e-05
5.40162e-06
2.90478e-05
4.49658e-06
2.7755e-05
3.73921e-06
2.66623e-05
3.09559e-06
2.57473e-05
2.54167e-06
2.49902e-05
2.06183e-06
2.43735e-05
1.64783e-06
2.38796e-05
1.29837e-06
2.34894e-05
1.0186e-06
2.31789e-05
8.17078e-07
7.01248e-07
5.58416e-05
2.84901e-05
5.482e-05
2.59228e-05
5.29475e-05
2.2865e-05
5.05464e-05
1.97529e-05
4.79117e-05
1.68493e-05
4.52596e-05
1.42765e-05
4.27268e-05
1.20644e-05
4.03873e-05
1.01915e-05
3.82735e-05
8.61395e-06
3.63927e-05
7.28246e-06
3.47384e-05
6.15089e-06
3.32978e-05
5.17981e-06
3.20558e-05
4.33759e-06
3.0997e-05
3.60046e-06
3.01065e-05
2.95227e-06
2.93698e-05
2.38452e-06
2.87716e-05
1.89662e-06
2.82937e-05
1.4965e-06
2.79113e-05
1.19948e-06
1.02615e-06
5.73244e-05
2.81121e-05
5.69196e-05
2.63275e-05
5.5782e-05
2.40027e-05
5.40879e-05
2.1447e-05
5.20441e-05
1.8893e-05
4.98346e-05
1.6486e-05
4.75998e-05
1.42992e-05
4.54358e-05
1.23554e-05
4.34025e-05
1.06473e-05
4.15327e-05
9.15221e-06
3.98418e-05
7.84177e-06
3.83339e-05
6.6877e-06
3.70066e-05
5.6649e-06
3.58539e-05
4.75318e-06
3.48678e-05
3.93837e-06
3.40389e-05
3.21342e-06
3.33558e-05
2.57978e-06
3.28029e-05
2.04937e-06
3.23565e-05
1.64585e-06
1.40625e-06
5.82774e-05
2.75247e-05
5.82834e-05
2.63215e-05
5.76892e-05
2.45969e-05
5.6577e-05
2.25592e-05
5.50778e-05
2.03923e-05
5.33301e-05
1.82337e-05
5.14569e-05
1.61724e-05
4.95557e-05
1.42566e-05
4.76979e-05
1.25052e-05
4.5932e-05
1.09181e-05
4.42893e-05
9.48444e-06
4.27882e-05
8.18881e-06
4.14383e-05
7.01487e-06
4.02431e-05
5.94829e-06
3.92026e-05
4.97888e-06
3.83134e-05
4.10261e-06
3.7569e-05
3.32422e-06
3.69577e-05
2.6607e-06
3.64582e-05
2.1453e-06
1.83398e-06
5.88465e-05
2.68198e-05
5.91199e-05
2.6048e-05
5.8915e-05
2.48018e-05
5.82582e-05
2.3216e-05
5.72238e-05
2.14267e-05
5.59075e-05
1.95501e-05
5.44063e-05
1.76736e-05
5.28069e-05
1.5856e-05
5.11807e-05
1.41315e-05
4.95824e-05
1.25163e-05
4.80525e-05
1.10144e-05
4.66193e-05
9.62202e-06
4.53019e-05
8.33229e-06
4.41124e-05
7.13775e-06
4.30579e-05
6.03336e-06
4.21412e-05
5.01928e-06
4.1361e-05
4.10448e-06
4.07099e-05
3.31178e-06
4.01703e-05
2.68489e-06
2.30013e-06
5.91311e-05
2.60588e-05
5.95716e-05
2.56075e-05
5.96368e-05
2.47366e-05
5.93225e-05
2.35303e-05
5.86647e-05
2.20845e-05
5.77239e-05
2.04908e-05
5.65712e-05
1.88263e-05
5.52773e-05
1.71499e-05
5.39061e-05
1.55027e-05
5.25116e-05
1.39108e-05
5.11374e-05
1.23886e-05
4.98172e-05
1.09422e-05
4.85764e-05
9.5731e-06
4.74334e-05
8.28071e-06
4.64012e-05
7.06557e-06
4.54879e-05
5.93258e-06
4.46969e-05
4.89548e-06
4.40253e-05
3.9834e-06
4.34595e-05
3.25068e-06
2.79451e-06
5.92029e-05
2.52841e-05
5.97392e-05
2.50711e-05
5.99839e-05
2.4492e-05
5.99176e-05
2.35966e-05
5.9552e-05
2.24501e-05
5.89219e-05
2.11209e-05
5.80758e-05
1.96725e-05
5.70674e-05
1.81582e-05
5.59501e-05
1.662e-05
5.47726e-05
1.50884e-05
5.35771e-05
1.35841e-05
5.23987e-05
1.21206e-05
5.12659e-05
1.07059e-05
5.0201e-05
9.34563e-06
4.92209e-05
8.04567e-06
4.83378e-05
6.81571e-06
4.75589e-05
5.67439e-06
4.68851e-05
4.65718e-06
4.6307e-05
3.8288e-06
3.30657e-06
5.9115e-05
2.45248e-05
5.96964e-05
2.44898e-05
6.00523e-05
2.4136e-05
6.01576e-05
2.34913e-05
6.00097e-05
2.25979e-05
5.96256e-05
2.1505e-05
5.90361e-05
2.0262e-05
5.82799e-05
1.89144e-05
5.73989e-05
1.7501e-05
5.64342e-05
1.6053e-05
5.54239e-05
1.45944e-05
5.44017e-05
1.31428e-05
5.33962e-05
1.17114e-05
5.2431e-05
1.03107e-05
5.15254e-05
8.95127e-06
5.0694e-05
7.64719e-06
4.99465e-05
6.42186e-06
4.92869e-05
5.31674e-06
4.87095e-05
4.4062e-06
3.82606e-06
5.89084e-05
2.38015e-05
5.94984e-05
2.38998e-05
5.99147e-05
2.37197e-05
6.01311e-05
2.32749e-05
6.0138e-05
2.25911e-05
5.99407e-05
2.17023e-05
5.95571e-05
2.06456e-05
5.90136e-05
1.94579e-05
5.83415e-05
1.81731e-05
5.75739e-05
1.68206e-05
5.67432e-05
1.54251e-05
5.58794e-05
1.40066e-05
5.50095e-05
1.25813e-05
5.41568e-05
1.11635e-05
5.33406e-05
9.76749e-06
5.25764e-05
8.41134e-06
5.18756e-05
7.1227e-06
5.12439e-05
5.94845e-06
5.06786e-05
4.97144e-06
4.34352e-06
5.86159e-05
2.31282e-05
5.91886e-05
2.3327e-05
5.96275e-05
2.32809e-05
5.99085e-05
2.29939e-05
6.00186e-05
2.24809e-05
5.99567e-05
2.17642e-05
5.97317e-05
2.08706e-05
5.93606e-05
1.9829e-05
5.88658e-05
1.86679e-05
5.82726e-05
1.74138e-05
5.76074e-05
1.60903e-05
5.68957e-05
1.47182e-05
5.61614e-05
1.33156e-05
5.54257e-05
1.18992e-05
5.47069e-05
1.04863e-05
5.402e-05
9.09817e-06
5.33766e-05
7.76614e-06
5.27833e-05
6.54177e-06
5.22396e-05
5.51507e-06
4.85079e-06
5.82652e-05
2.2514e-05
5.88027e-05
2.27895e-05
5.9237e-05
2.28466e-05
5.9547e-05
2.26838e-05
5.97198e-05
2.23082e-05
5.97505e-05
2.17334e-05
5.96425e-05
2.09786e-05
5.9406e-05
2.00656e-05
5.90562e-05
1.90177e-05
5.86118e-05
1.78581e-05
5.80934e-05
1.66088e-05
5.75216e-05
1.529e-05
5.69163e-05
1.39209e-05
5.62959e-05
1.25196e-05
5.56766e-05
1.11056e-05
5.50719e-05
9.70285e-06
5.44924e-05
8.34565e-06
5.39447e-05
7.08947e-06
5.34299e-05
6.02993e-06
5.34133e-06
5.78814e-05
2.19638e-05
5.83723e-05
2.22987e-05
5.87831e-05
2.24358e-05
5.90967e-05
2.23703e-05
5.93011e-05
2.21038e-05
5.93904e-05
2.16442e-05
5.93645e-05
2.10044e-05
5.92292e-05
2.0201e-05
5.89942e-05
1.92527e-05
5.86729e-05
1.81795e-05
5.82804e-05
1.70013e-05
5.78326e-05
1.57378e-05
5.73455e-05
1.4408e-05
5.68338e-05
1.30312e-05
5.63112e-05
1.16283e-05
5.57888e-05
1.02252e-05
5.52756e-05
8.85881e-06
5.47775e-05
7.58759e-06
5.42961e-05
6.51132e-06
5.81068e-06
5.74904e-05
2.14785e-05
5.79288e-05
2.18602e-05
5.83047e-05
2.20599e-05
5.86046e-05
2.20704e-05
5.88185e-05
2.18898e-05
5.89406e-05
2.15221e-05
5.89692e-05
2.09758e-05
5.8907e-05
2.02631e-05
5.87601e-05
1.93996e-05
5.85374e-05
1.84022e-05
5.82494e-05
1.72892e-05
5.7908e-05
1.60792e-05
5.75248e-05
1.47912e-05
5.71114e-05
1.34446e-05
5.66781e-05
1.20616e-05
5.62338e-05
1.06696e-05
5.57854e-05
9.30725e-06
5.53373e-05
8.03564e-06
5.48913e-05
6.95736e-06
6.25635e-06
5.7121e-05
2.1054e-05
5.75072e-05
2.14741e-05
5.78437e-05
2.17234e-05
5.81205e-05
2.17935e-05
5.833e-05
2.16804e-05
5.84669e-05
2.13852e-05
5.85292e-05
2.09134e-05
5.85177e-05
2.02746e-05
5.84359e-05
1.94814e-05
5.82891e-05
1.8549e-05
5.80845e-05
1.74938e-05
5.783e-05
1.63337e-05
5.75339e-05
1.50873e-05
5.72044e-05
1.37742e-05
5.68488e-05
1.24172e-05
5.64738e-05
1.10446e-05
5.60841e-05
9.6969e-06
5.5683e-05
8.43671e-06
5.5271e-05
7.36943e-06
6.67698e-06
5.68108e-05
2.06805e-05
5.71517e-05
2.11331e-05
5.7452e-05
2.14231e-05
5.77045e-05
2.1541e-05
5.79034e-05
2.14815e-05
5.80446e-05
2.1244e-05
5.81261e-05
2.0832e-05
5.81475e-05
2.02532e-05
5.81106e-05
1.95184e-05
5.80184e-05
1.86412e-05
5.78752e-05
1.7637e-05
5.7686e-05
1.65229e-05
5.74562e-05
1.5317e-05
5.71914e-05
1.40391e-05
5.68966e-05
1.27119e-05
5.65765e-05
1.13647e-05
5.62346e-05
1.00388e-05
5.58735e-05
8.79777e-06
5.54946e-05
7.74834e-06
7.07776e-06
5.66174e-05
5.69299e-05
5.72068e-05
5.74426e-05
5.7633e-05
5.77745e-05
5.78651e-05
5.79043e-05
5.78925e-05
5.78315e-05
5.77238e-05
5.75726e-05
5.73817e-05
5.71548e-05
5.68957e-05
5.66082e-05
5.62959e-05
5.59617e-05
5.56068e-05
)
;

boundaryField
{
    zeroGradPlanes
    {
        type            calculated;
        value           nonuniform List<scalar> 
80
(
-3.35607e-07
-1.2186e-06
-2.23387e-06
-3.34565e-06
-4.54411e-06
-5.82709e-06
-7.19856e-06
-8.66778e-06
-1.02491e-05
-1.19623e-05
-1.38322e-05
-1.58885e-05
-1.81624e-05
-2.06791e-05
-2.34391e-05
-2.63779e-05
-2.92808e-05
-3.15577e-05
-3.16437e-05
-2.61733e-05
2.60796e-06
7.81201e-06
1.29671e-05
1.80209e-05
2.29146e-05
2.75864e-05
3.19764e-05
3.60305e-05
3.97042e-05
4.29651e-05
4.57949e-05
4.819e-05
5.01612e-05
5.17324e-05
5.29393e-05
5.38268e-05
5.44456e-05
5.48503e-05
5.50938e-05
5.52081e-05
2.82614e-07
1.0267e-06
1.87987e-06
2.80668e-06
3.79168e-06
4.82394e-06
5.89521e-06
6.99866e-06
8.12801e-06
9.27696e-06
1.04387e-05
1.16055e-05
1.27683e-05
1.39169e-05
1.5039e-05
1.61207e-05
1.71465e-05
1.80992e-05
1.89609e-05
1.97132e-05
2.03385e-05
2.08207e-05
2.11463e-05
2.13052e-05
2.12912e-05
2.11025e-05
2.07413e-05
2.0214e-05
1.95301e-05
1.87022e-05
1.77448e-05
1.66741e-05
1.5508e-05
1.4266e-05
1.2971e-05
1.16522e-05
1.03511e-05
9.13201e-06
8.10324e-06
7.47645e-06
)
;
    }
    inlet
    {
        type            calculated;
        value           nonuniform List<scalar> 
20
(
-5e-05
-5e-05
-5e-05
-5e-05
-5e-05
-5e-05
-5e-05
-5e-05
-5e-05
-5e-05
-5e-05
-5e-05
-5e-05
-5e-05
-5e-05
-5e-05
-5e-05
-5e-05
-5e-05
-5e-05
)
;
    }
    plate
    {
        type            calculated;
        value           uniform 0;
    }
    frontAndBack
    {
        type            empty;
        value           nonuniform 0();
    }
}


// ************************************************************************* //
