/*--------------------------------*- C++ -*----------------------------------*\
| =========                 |                                                 |
| \\      /  F ield         | OpenFOAM: The Open Source CFD Toolbox           |
|  \\    /   O peration     | Version:  v1906                                 |
|   \\  /    A nd           | Web:      www.OpenFOAM.com                      |
|    \\/     M anipulation  |                                                 |
\*---------------------------------------------------------------------------*/
FoamFile
{
    version     2.0;
    format      ascii;
    class       volVectorField;
    location    "0.3";
    object      U;
}
// * * * * * * * * * * * * * * * * * * * * * * * * * * * * * * * * * * * * * //

dimensions      [0 1 -1 0 0 0 0];


internalField   nonuniform List<vector> 
800
(
(0.999279 0.00750068 0)
(0.996678 0.0256322 0)
(0.992807 0.0461043 0)
(0.98824 0.0684877 0)
(0.983233 0.0925869 0)
(0.97785 0.118367 0)
(0.972117 0.145916 0)
(0.966043 0.175427 0)
(0.959618 0.207195 0)
(0.952805 0.241622 0)
(0.945548 0.279221 0)
(0.937753 0.320604 0)
(0.92928 0.36643 0)
(0.919914 0.417263 0)
(0.909345 0.473217 0)
(0.896868 0.533175 0)
(0.880225 0.593251 0)
(0.857167 0.643292 0)
(0.840088 0.655884 0)
(0.824741 0.558687 0)
(0.999486 0.00925116 0)
(0.997323 0.0291247 0)
(0.993769 0.0505945 0)
(0.989434 0.0736311 0)
(0.984635 0.0982102 0)
(0.979475 0.124383 0)
(0.974004 0.152284 0)
(0.968254 0.182137 0)
(0.962237 0.214259 0)
(0.955953 0.249072 0)
(0.949397 0.287108 0)
(0.942563 0.329002 0)
(0.935455 0.375448 0)
(0.928099 0.427063 0)
(0.920602 0.484056 0)
(0.913149 0.545492 0)
(0.905578 0.607935 0)
(0.8982 0.662922 0)
(0.899302 0.688993 0)
(0.907781 0.629884 0)
(0.999679 0.0106327 0)
(0.998032 0.0322116 0)
(0.995018 0.0547258 0)
(0.991183 0.0784427 0)
(0.986861 0.1035 0)
(0.982198 0.130037 0)
(0.977284 0.158238 0)
(0.972188 0.188353 0)
(0.966969 0.220713 0)
(0.961689 0.255739 0)
(0.956432 0.293954 0)
(0.951331 0.335966 0)
(0.946595 0.382414 0)
(0.94257 0.433819 0)
(0.939837 0.490242 0)
(0.939313 0.550535 0)
(0.942115 0.61096 0)
(0.949522 0.662963 0)
(0.964481 0.688426 0)
(0.980982 0.649289 0)
(0.999792 0.0114906 0)
(0.998574 0.0343968 0)
(0.99618 0.0578327 0)
(0.99302 0.082171 0)
(0.989392 0.107644 0)
(0.985463 0.134455 0)
(0.981356 0.162828 0)
(0.977183 0.193029 0)
(0.973054 0.225384 0)
(0.9691 0.260291 0)
(0.9655 0.298223 0)
(0.962512 0.339698 0)
(0.960524 0.385215 0)
(0.960112 0.435076 0)
(0.962123 0.489031 0)
(0.967726 0.54558 0)
(0.978247 0.600749 0)
(0.994701 0.64638 0)
(1.01708 0.667869 0)
(1.03802 0.641802 0)
(0.999862 0.0120833 0)
(0.998992 0.0360245 0)
(0.997206 0.060252 0)
(0.994787 0.0851465 0)
(0.991973 0.110981 0)
(0.98893 0.137996 0)
(0.985801 0.166438 0)
(0.982729 0.196574 0)
(0.97987 0.228715 0)
(0.977413 0.263215 0)
(0.97561 0.300472 0)
(0.974812 0.340888 0)
(0.97551 0.384787 0)
(0.978388 0.43224 0)
(0.984357 0.482725 0)
(0.994533 0.534541 0)
(1.00999 0.583897 0)
(1.03118 0.623806 0)
(1.05678 0.643233 0)
(1.08012 0.627693 0)
(0.999914 0.0124922 0)
(0.999335 0.0371906 0)
(0.998113 0.0620288 0)
(0.99643 0.0873603 0)
(0.99447 0.113464 0)
(0.992383 0.140591 0)
(0.990318 0.16899 0)
(0.988436 0.19892 0)
(0.986921 0.23066 0)
(0.986002 0.264513 0)
(0.985976 0.30079 0)
(0.987241 0.339772 0)
(0.990326 0.381621 0)
(0.995921 0.426218 0)
(1.00488 0.472873 0)
(1.01812 0.519871 0)
(1.03637 0.563852 0)
(1.05961 0.599192 0)
(1.08604 0.617829 0)
(1.11019 0.610501 0)
(0.999954 0.0127441 0)
(0.999625 0.037932 0)
(0.998911 0.0631745 0)
(0.997928 0.088787 0)
(0.996808 0.115033 0)
(0.995682 0.142157 0)
(0.994694 0.170395 0)
(0.994009 0.199983 0)
(0.993824 0.231164 0)
(0.994385 0.264181 0)
(0.996004 0.299262 0)
(0.999087 0.336577 0)
(1.00415 0.376156 0)
(1.01183 0.417747 0)
(1.02284 0.460587 0)
(1.0379 0.503073 0)
(1.05743 0.542362 0)
(1.08109 0.574068 0)
(1.10707 0.592379 0)
(1.13111 0.591197 0)
(0.999987 0.0128625 0)
(0.999872 0.0382967 0)
(0.999613 0.0637387 0)
(0.999273 0.0894646 0)
(0.998947 0.115714 0)
(0.998743 0.142712 0)
(0.998791 0.170671 0)
(0.99925 0.1998 0)
(1.00031 0.230299 0)
(1.00223 0.262351 0)
(1.00529 0.296111 0)
(1.0099 0.331654 0)
(1.01651 0.368914 0)
(1.02567 0.407561 0)
(1.03797 0.44683 0)
(1.05391 0.485294 0)
(1.07368 0.52062 0)
(1.09681 0.549447 0)
(1.1217 0.567586 0)
(1.14509 0.570897 0)
(1.00002 0.0128672 0)
(1.00009 0.0383316 0)
(1.00023 0.0637805 0)
(1.00047 0.0894548 0)
(1.00087 0.115567 0)
(1.00152 0.142317 0)
(1.00253 0.169893 0)
(1.00404 0.198466 0)
(1.00623 0.228196 0)
(1.00933 0.259214 0)
(1.01362 0.291606 0)
(1.01943 0.325378 0)
(1.02719 0.360397 0)
(1.03733 0.396297 0)
(1.0503 0.432356 0)
(1.06644 0.467346 0)
(1.08581 0.49939 0)
(1.1079 0.525928 0)
(1.13137 0.543919 0)
(1.15376 0.550457 0)
(1.00004 0.012774 0)
(1.00027 0.0380768 0)
(1.00077 0.0633562 0)
(1.00154 0.0888236 0)
(1.0026 0.114667 0)
(1.00402 0.141059 0)
(1.00589 0.168158 0)
(1.00833 0.196105 0)
(1.01151 0.225017 0)
(1.01561 0.254976 0)
(1.02088 0.286018 0)
(1.02762 0.318094 0)
(1.03616 0.351029 0)
(1.04686 0.384452 0)
(1.06006 0.417707 0)
(1.07595 0.449757 0)
(1.09452 0.479106 0)
(1.1153 0.503804 0)
(1.13718 0.521618 0)
(1.15834 0.530441 0)
(1.00006 0.0125953 0)
(1.00043 0.0375662 0)
(1.00125 0.0625165 0)
(1.00248 0.087636 0)
(1.00413 0.11309 0)
(1.00624 0.139028 0)
(1.00888 0.16558 0)
(1.01213 0.192853 0)
(1.01614 0.220928 0)
(1.02106 0.249846 0)
(1.0271 0.2796 0)
(1.03451 0.310103 0)
(1.04354 0.341158 0)
(1.05447 0.372404 0)
(1.06755 0.403259 0)
(1.0829 0.432856 0)
(1.10044 0.460005 0)
(1.11976 0.483214 0)
(1.13999 0.500814 0)
(1.15976 0.511239 0)
(1.00008 0.0123408 0)
(1.00058 0.0368261 0)
(1.00169 0.0613038 0)
(1.00334 0.0859499 0)
(1.00552 0.110912 0)
(1.00824 0.136318 0)
(1.01154 0.16227 0)
(1.01549 0.188847 0)
(1.02018 0.216093 0)
(1.02575 0.244018 0)
(1.03236 0.272579 0)
(1.0402 0.301663 0)
(1.04948 0.331062 0)
(1.0604 0.360436 0)
(1.07312 0.389272 0)
(1.08773 0.416848 0)
(1.10411 0.442214 0)
(1.12192 0.464215 0)
(1.14048 0.481583 0)
(1.15875 0.493122 0)
(1.00009 0.0120164 0)
(1.00072 0.0358745 0)
(1.0021 0.0597496 0)
(1.00415 0.0838129 0)
(1.0068 0.108199 0)
(1.01006 0.133014 0)
(1.01393 0.158337 0)
(1.01846 0.184216 0)
(1.0237 0.210667 0)
(1.02976 0.237669 0)
(1.03677 0.265152 0)
(1.04486 0.292986 0)
(1.05419 0.320959 0)
(1.0649 0.348754 0)
(1.07711 0.375921 0)
(1.09084 0.401856 0)
(1.106 0.425792 0)
(1.12229 0.44682 0)
(1.13918 0.463961 0)
(1.1559 0.47628 0)
(1.00011 0.0116233 0)
(1.00087 0.0347178 0)
(1.00251 0.0578713 0)
(1.00493 0.0812589 0)
(1.00803 0.105004 0)
(1.01176 0.129193 0)
(1.01613 0.153877 0)
(1.02112 0.17908 0)
(1.0268 0.204787 0)
(1.03322 0.230953 0)
(1.04047 0.257486 0)
(1.04865 0.284244 0)
(1.05788 0.311017 0)
(1.06825 0.337508 0)
(1.07982 0.363322 0)
(1.09262 0.387946 0)
(1.10652 0.410754 0)
(1.12131 0.431017 0)
(1.13656 0.44796 0)
(1.15169 0.460834 0)
(1.00013 0.0111564 0)
(1.00103 0.0333482 0)
(1.00296 0.0556702 0)
(1.00574 0.0783071 0)
(1.00925 0.101369 0)
(1.01342 0.124917 0)
(1.01819 0.148977 0)
(1.02357 0.173541 0)
(1.02957 0.198572 0)
(1.03622 0.224 0)
(1.04359 0.249718 0)
(1.05174 0.275573 0)
(1.06075 0.301359 0)
(1.07067 0.326799 0)
(1.08155 0.351542 0)
(1.09337 0.375146 0)
(1.10603 0.397088 0)
(1.11935 0.416771 0)
(1.133 0.433565 0)
(1.14656 0.446854 0)
(1.00016 0.0106031 0)
(1.00122 0.0317456 0)
(1.00346 0.0531375 0)
(1.00663 0.0749713 0)
(1.01052 0.0973332 0)
(1.01506 0.120252 0)
(1.02018 0.143721 0)
(1.02585 0.167703 0)
(1.03206 0.192135 0)
(1.03885 0.216929 0)
(1.04623 0.241963 0)
(1.05426 0.267081 0)
(1.06296 0.292079 0)
(1.07238 0.316698 0)
(1.08253 0.340619 0)
(1.09337 0.363458 0)
(1.10483 0.384764 0)
(1.11674 0.404036 0)
(1.12886 0.420746 0)
(1.14087 0.434373 0)
(1.00021 0.00994277 0)
(1.00148 0.0298849 0)
(1.00407 0.0502739 0)
(1.00761 0.071288 0)
(1.01187 0.0929675 0)
(1.01671 0.115295 0)
(1.02209 0.138225 0)
(1.02797 0.161691 0)
(1.03432 0.185607 0)
(1.04114 0.209869 0)
(1.04847 0.234347 0)
(1.0563 0.258879 0)
(1.06466 0.283268 0)
(1.07355 0.307269 0)
(1.08298 0.330589 0)
(1.09288 0.352883 0)
(1.1032 0.373755 0)
(1.11381 0.392769 0)
(1.1245 0.409466 0)
(1.13505 0.423395 0)
(1.00029 0.00910198 0)
(1.00186 0.0276743 0)
(1.00482 0.0470245 0)
(1.00872 0.0672422 0)
(1.01326 0.0882845 0)
(1.01834 0.110073 0)
(1.02389 0.132521 0)
(1.02988 0.155533 0)
(1.03628 0.179006 0)
(1.04309 0.202826 0)
(1.0503 0.226854 0)
(1.05791 0.250932 0)
(1.06591 0.274864 0)
(1.07431 0.298419 0)
(1.08306 0.321323 0)
(1.09213 0.34326 0)
(1.10143 0.36387 0)
(1.11087 0.382762 0)
(1.12029 0.399524 0)
(1.12952 0.413745 0)
(1.00045 0.00785571 0)
(1.0024 0.0248035 0)
(1.0057 0.0430722 0)
(1.00985 0.0625098 0)
(1.01457 0.0829417 0)
(1.01977 0.104218 0)
(1.0254 0.126209 0)
(1.03142 0.148799 0)
(1.03782 0.171872 0)
(1.04456 0.195305 0)
(1.05165 0.21896 0)
(1.05905 0.242678 0)
(1.06675 0.266272 0)
(1.07472 0.28952 0)
(1.08293 0.312163 0)
(1.09131 0.333906 0)
(1.0998 0.354414 0)
(1.10831 0.373325 0)
(1.11671 0.390255 0)
(1.12486 0.404822 0)
(1.00061 0.00634411 0)
(1.00289 0.0217171 0)
(1.0064 0.0390248 0)
(1.01065 0.0577918 0)
(1.01542 0.0777073 0)
(1.02065 0.0985559 0)
(1.02629 0.120176 0)
(1.03231 0.142432 0)
(1.03868 0.165199 0)
(1.04537 0.188351 0)
(1.05237 0.21175 0)
(1.05963 0.23524 0)
(1.06714 0.258638 0)
(1.07486 0.281734 0)
(1.08274 0.304281 0)
(1.09071 0.325997 0)
(1.09872 0.346564 0)
(1.10666 0.365639 0)
(1.11444 0.382855 0)
(1.12195 0.397844 0)
(0.467578 0.220917 0)
(0.296685 0.0864986 0)
(0.195167 0.034556 0)
(0.143215 0.0148232 0)
(0.115802 0.00707778 0)
(0.0991639 0.00386431 0)
(0.0879257 0.00242474 0)
(0.0797975 0.00170235 0)
(0.0736245 0.00128389 0)
(0.0687855 0.00100466 0)
(0.0649279 0.00079626 0)
(0.0618353 0.000628165 0)
(0.059366 0.000485712 0)
(0.0574199 0.000361998 0)
(0.0559196 0.00025513 0)
(0.0547966 0.000167692 0)
(0.053976 0.000108186 0)
(0.0533457 9.05479e-05 0)
(0.0527859 0.00010607 0)
(0.0524561 8.32635e-05 0)
(0.794479 0.409362 0)
(0.647679 0.228908 0)
(0.515639 0.125101 0)
(0.42055 0.0714203 0)
(0.354899 0.0436074 0)
(0.308287 0.0286299 0)
(0.274138 0.0200934 0)
(0.248401 0.0148716 0)
(0.228491 0.011429 0)
(0.212764 0.00899621 0)
(0.200168 0.00717113 0)
(0.190008 0.00573313 0)
(0.181811 0.00455633 0)
(0.175238 0.00356933 0)
(0.170031 0.00273642 0)
(0.165976 0.00204914 0)
(0.162869 0.00152429 0)
(0.160453 0.00119646 0)
(0.158459 0.00104497 0)
(0.157264 0.000896549 0)
(0.942314 0.505262 0)
(0.851572 0.351552 0)
(0.744127 0.236447 0)
(0.647194 0.160044 0)
(0.567832 0.110967 0)
(0.504657 0.0794708 0)
(0.454677 0.0588783 0)
(0.414978 0.0449637 0)
(0.383157 0.0351748 0)
(0.357405 0.0279928 0)
(0.336412 0.0225057 0)
(0.319232 0.0181565 0)
(0.305179 0.0146013 0)
(0.293742 0.0116304 0)
(0.284523 0.00912628 0)
(0.277198 0.0070401 0)
(0.271471 0.00537969 0)
(0.266981 0.00419036 0)
(0.263321 0.00346048 0)
(0.261092 0.00300153 0)
(1.02844 0.549982 0)
(0.97744 0.434183 0)
(0.901072 0.329488 0)
(0.819257 0.246969 0)
(0.742866 0.185723 0)
(0.675812 0.141415 0)
(0.618711 0.109486 0)
(0.570762 0.0862148 0)
(0.530696 0.0689006 0)
(0.497243 0.0556834 0)
(0.469304 0.0453108 0)
(0.445988 0.0369459 0)
(0.426588 0.030034 0)
(0.410544 0.024216 0)
(0.397403 0.019276 0)
(0.386786 0.01511 0)
(0.378358 0.0117062 0)
(0.371688 0.00912168 0)
(0.366254 0.00738826 0)
(0.36289 0.00638744 0)
(1.08423 0.568392 0)
(1.05841 0.48401 0)
(1.00826 0.396844 0)
(0.945784 0.319148 0)
(0.880473 0.254912 0)
(0.817893 0.203878 0)
(0.760784 0.164053 0)
(0.710129 0.13306 0)
(0.665931 0.108761 0)
(0.627743 0.0894435 0)
(0.594962 0.0738111 0)
(0.56698 0.0609158 0)
(0.543243 0.0500814 0)
(0.523268 0.0408439 0)
(0.506636 0.0329084 0)
(0.492988 0.0261219 0)
(0.481992 0.0204574 0)
(0.473198 0.0159958 0)
(0.465997 0.0128491 0)
(0.461468 0.011049 0)
(1.12141 0.572274 0)
(1.11149 0.511843 0)
(1.0812 0.442673 0)
(1.03684 0.374801 0)
(0.985185 0.313599 0)
(0.931446 0.261066 0)
(0.879083 0.217198 0)
(0.830101 0.181022 0)
(0.785475 0.151252 0)
(0.745528 0.126628 0)
(0.710225 0.106056 0)
(0.679344 0.088654 0)
(0.652593 0.0737399 0)
(0.629659 0.0608175 0)
(0.610237 0.0495559 0)
(0.594042 0.0397792 0)
(0.580801 0.031462 0)
(0.570079 0.024729 0)
(0.561224 0.0198098 0)
(0.555573 0.0169639 0)
(1.1462 0.56737 0)
(1.14632 0.524927 0)
(1.13031 0.471758 0)
(1.10099 0.415182 0)
(1.06261 0.360286 0)
(1.01926 0.309946 0)
(0.974226 0.265355 0)
(0.929853 0.226629 0)
(0.887651 0.193303 0)
(0.848502 0.164671 0)
(0.812849 0.13998 0)
(0.780858 0.118537 0)
(0.752527 0.0997604 0)
(0.727761 0.083195 0)
(0.706414 0.0685265 0)
(0.688318 0.0555904 0)
(0.673293 0.0443887 0)
(0.660958 0.0351142 0)
(0.650656 0.0281486 0)
(0.64399 0.0240514 0)
(1.16219 0.557153 0)
(1.16862 0.528095 0)
(1.16258 0.488242 0)
(1.14496 0.442609 0)
(1.11815 0.395374 0)
(1.08502 0.34946 0)
(1.04825 0.306597 0)
(1.01009 0.267583 0)
(0.972198 0.232591 0)
(0.935763 0.201421 0)
(0.901555 0.173695 0)
(0.870049 0.148974 0)
(0.841506 0.126837 0)
(0.816047 0.106931 0)
(0.793697 0.0890046 0)
(0.774428 0.0729402 0)
(0.758168 0.0587938 0)
(0.744617 0.0468497 0)
(0.733141 0.0376718 0)
(0.725626 0.0321785 0)
(1.1717 0.543856 0)
(1.18197 0.524721 0)
(1.18272 0.495571 0)
(1.17384 0.4597 0)
(1.15649 0.420275 0)
(1.13249 0.379863 0)
(1.10385 0.340287 0)
(1.07245 0.30268 0)
(1.03987 0.267622 0)
(1.00739 0.235309 0)
(0.975938 0.205691 0)
(0.946189 0.178587 0)
(0.918606 0.153764 0)
(0.89349 0.131005 0)
(0.871024 0.110153 0)
(0.851312 0.0911646 0)
(0.834398 0.0741734 0)
(0.820067 0.0595747 0)
(0.807739 0.0481352 0)
(0.79958 0.0411732 0)
(1.17634 0.528945 0)
(1.18878 0.517171 0)
(1.194 0.496459 0)
(1.19143 0.468897 0)
(1.18146 0.436759 0)
(1.16514 0.402119 0)
(1.14384 0.366647 0)
(1.11904 0.331558 0)
(1.09209 0.297643 0)
(1.06419 0.265354 0)
(1.03631 0.234895 0)
(1.00921 0.206306 0)
(0.983495 0.179538 0)
(0.959579 0.154514 0)
(0.937773 0.13119 0)
(0.918293 0.109614 0)
(0.901283 0.0900114 0)
(0.886615 0.0729014 0)
(0.873772 0.0592644 0)
(0.8652 0.0508377 0)
(1.17728 0.513413 0)
(1.19075 0.50711 0)
(1.19876 0.492975 0)
(1.20056 0.472282 0)
(1.19613 0.446595 0)
(1.18596 0.417496 0)
(1.17094 0.386395 0)
(1.15212 0.354436 0)
(1.1306 0.322471 0)
(1.10743 0.291089 0)
(1.0835 0.260661 0)
(1.0596 0.231396 0)
(1.03636 0.2034 0)
(1.01429 0.176728 0)
(0.993765 0.151446 0)
(0.975088 0.127702 0)
(0.958483 0.10582 0)
(0.94389 0.0864469 0)
(0.930864 0.0707759 0)
(0.922116 0.0609605 0)
(1.17542 0.497952 0)
(1.18912 0.495723 0)
(1.19869 0.48668 0)
(1.20338 0.471556 0)
(1.20291 0.451387 0)
(1.19747 0.427325 0)
(1.18756 0.400494 0)
(1.1739 0.371891 0)
(1.15732 0.342333 0)
(1.13866 0.312454 0)
(1.11873 0.282715 0)
(1.09825 0.25344 0)
(1.07784 0.22485 0)
(1.05802 0.197113 0)
(1.03923 0.170397 0)
(1.0218 0.144943 0)
(1.00601 0.121173 0)
(0.991856 0.0998588 0)
(0.97895 0.0823962 0)
(0.970255 0.0713304 0)
(1.17146 0.483042 0)
(1.18483 0.483859 0)
(1.19507 0.478744 0)
(1.20149 0.468077 0)
(1.20374 0.452513 0)
(1.20178 0.432861 0)
(1.19586 0.409977 0)
(1.18644 0.384682 0)
(1.17412 0.357709 0)
(1.15956 0.329673 0)
(1.14341 0.301069 0)
(1.12633 0.272285 0)
(1.10886 0.243621 0)
(1.09153 0.215333 0)
(1.07475 0.187671 0)
(1.05888 0.160964 0)
(1.04423 0.135722 0)
(1.0308 0.112834 0)
(1.01827 0.0938772 0)
(1.00984 0.0817472 0)
(1.16598 0.46902 0)
(1.17863 0.472126 0)
(1.18889 0.470035 0)
(1.19619 0.462903 0)
(1.20014 0.451116 0)
(1.2006 0.435217 0)
(1.19767 0.415838 0)
(1.19161 0.393629 0)
(1.18283 0.369213 0)
(1.17182 0.343154 0)
(1.1591 0.315941 0)
(1.14521 0.287987 0)
(1.13063 0.259642 0)
(1.11583 0.231221 0)
(1.1012 0.203044 0)
(1.08708 0.175509 0)
(1.07377 0.149207 0)
(1.06128 0.125128 0)
(1.04935 0.105008 0)
(1.04135 0.0920334 0)
(1.15946 0.45611 0)
(1.17112 0.460951 0)
(1.18097 0.46119 0)
(1.1885 0.456843 0)
(1.19338 0.448109 0)
(1.19542 0.435337 0)
(1.19461 0.418976 0)
(1.1911 0.399525 0)
(1.18515 0.3775 0)
(1.17711 0.353397 0)
(1.16738 0.327674 0)
(1.15637 0.300748 0)
(1.1445 0.272992 0)
(1.13216 0.24476 0)
(1.11968 0.216423 0)
(1.10739 0.188436 0)
(1.09554 0.16146 0)
(1.08413 0.136568 0)
(1.07295 0.115625 0)
(1.06552 0.102044 0)
(1.15236 0.444454 0)
(1.16288 0.450628 0)
(1.172 0.452669 0)
(1.17932 0.450505 0)
(1.18455 0.444211 0)
(1.1875 0.433994 0)
(1.18812 0.420163 0)
(1.18647 0.403096 0)
(1.18271 0.383209 0)
(1.17707 0.360931 0)
(1.16985 0.336682 0)
(1.16137 0.310863 0)
(1.15194 0.283857 0)
(1.14188 0.256042 0)
(1.13147 0.227823 0)
(1.12098 0.199702 0)
(1.11062 0.172394 0)
(1.10037 0.147043 0)
(1.09002 0.12561 0)
(1.08325 0.111661 0)
(1.14514 0.434137 0)
(1.15446 0.44135 0)
(1.16268 0.444789 0)
(1.1695 0.444326 0)
(1.17468 0.439955 0)
(1.17806 0.431785 0)
(1.17957 0.420021 0)
(1.17921 0.404947 0)
(1.17708 0.3869 0)
(1.17334 0.366246 0)
(1.16817 0.343367 0)
(1.16182 0.318644 0)
(1.15451 0.292459 0)
(1.14649 0.265202 0)
(1.13797 0.237304 0)
(1.12916 0.209301 0)
(1.12023 0.181952 0)
(1.11113 0.156456 0)
(1.10165 0.13484 0)
(1.09558 0.120757 0)
(1.13833 0.425043 0)
(1.1465 0.433085 0)
(1.15378 0.437618 0)
(1.15996 0.438479 0)
(1.16486 0.43561 0)
(1.16835 0.429054 0)
(1.17034 0.418944 0)
(1.17084 0.405496 0)
(1.16988 0.388984 0)
(1.16756 0.369729 0)
(1.16401 0.348077 0)
(1.15938 0.32439 0)
(1.15383 0.299043 0)
(1.14753 0.272433 0)
(1.14064 0.245006 0)
(1.13331 0.217324 0)
(1.12567 0.190181 0)
(1.11762 0.164814 0)
(1.10898 0.143305 0)
(1.10359 0.129366 0)
(1.13262 0.41666 0)
(1.13981 0.425446 0)
(1.14626 0.430918 0)
(1.15183 0.432893 0)
(1.15637 0.431278 0)
(1.15978 0.426069 0)
(1.16202 0.417354 0)
(1.16304 0.405298 0)
(1.16287 0.390133 0)
(1.16156 0.372142 0)
(1.15918 0.351643 0)
(1.15583 0.328981 0)
(1.15161 0.304522 0)
(1.14664 0.278664 0)
(1.14101 0.251861 0)
(1.13485 0.224691 0)
(1.12824 0.197974 0)
(1.12106 0.172976 0)
(1.11319 0.151828 0)
(1.1084 0.138372 0)
(1.12906 0.410252 0)
(1.13564 0.419755 0)
(1.14156 0.426086 0)
(1.14672 0.429044 0)
(1.151 0.42851 0)
(1.15434 0.424452 0)
(1.15667 0.416922 0)
(1.15797 0.406051 0)
(1.15823 0.392038 0)
(1.15749 0.375139 0)
(1.15579 0.35565 0)
(1.15318 0.333902 0)
(1.14974 0.310253 0)
(1.14553 0.285098 0)
(1.14065 0.258896 0)
(1.13518 0.232236 0)
(1.12918 0.205953 0)
(1.12253 0.181333 0)
(1.1153 0.160538 0)
(1.11092 0.147385 0)
)
;

boundaryField
{
    zeroGradPlanes
    {
        type            zeroGradient;
    }
    inlet
    {
        type            fixedValue;
        value           uniform (1 0 0);
    }
    plate
    {
        type            noSlip;
    }
    frontAndBack
    {
        type            empty;
    }
}


// ************************************************************************* //
