/*--------------------------------*- C++ -*----------------------------------*\
| =========                 |                                                 |
| \\      /  F ield         | OpenFOAM: The Open Source CFD Toolbox           |
|  \\    /   O peration     | Version:  v1906                                 |
|   \\  /    A nd           | Web:      www.OpenFOAM.com                      |
|    \\/     M anipulation  |                                                 |
\*---------------------------------------------------------------------------*/
FoamFile
{
    version     2.0;
    format      ascii;
    class       volScalarField;
    location    "0.2";
    object      p;
}
// * * * * * * * * * * * * * * * * * * * * * * * * * * * * * * * * * * * * * //

dimensions      [0 2 -2 0 0 0 0];


internalField   nonuniform List<scalar> 
400
(
4.53654e-05
-24.0138
-40.7625
-50.207
-56.1127
-60.0888
-62.7047
-64.4181
-65.6092
-66.5159
-67.263
-67.9123
-68.4954
-69.0299
-69.5262
-69.9921
-70.4311
-70.8491
-71.2411
-71.6072
-21.7834
-32.9916
-43.2304
-50.1866
-55.0001
-58.572
-61.2091
-63.126
-64.5521
-65.6659
-66.5777
-67.352
-68.0287
-68.634
-69.1851
-69.6957
-70.1713
-70.6274
-71.0459
-71.5199
-35.1439
-39.8458
-45.5119
-50.4849
-54.4731
-57.6869
-60.2474
-62.2387
-63.7843
-65.013
-66.0222
-66.8766
-67.6186
-68.2779
-68.8738
-69.4249
-69.9359
-70.4391
-70.8923
-71.4666
-42.4086
-44.5688
-47.8465
-51.4141
-54.6461
-57.4027
-59.7087
-61.6047
-63.1512
-64.4233
-65.4893
-66.4012
-67.1959
-67.9021
-68.5385
-69.1279
-69.672
-70.218
-70.7037
-71.3248
-47.0592
-48.225
-50.2513
-52.7766
-55.2838
-57.54
-59.5119
-61.2145
-62.6717
-63.9178
-64.9912
-65.9269
-66.752
-67.4906
-68.1576
-68.7766
-69.3458
-69.916
-70.4174
-71.0214
-50.3895
-51.1102
-52.4288
-54.2084
-56.1128
-57.9264
-59.5829
-61.0732
-62.3996
-63.5723
-64.609
-65.5306
-66.355
-67.1007
-67.778
-68.4078
-68.9852
-69.5543
-70.0497
-70.5938
-52.8928
-53.3738
-54.2699
-55.544
-56.994
-58.4504
-59.8364
-61.1267
-62.3112
-63.3879
-64.3616
-65.2431
-66.0429
-66.7737
-67.4419
-68.0636
-68.6327
-69.1813
-69.656
-70.1277
-54.8341
-55.1719
-55.8085
-56.7462
-57.8645
-59.0386
-60.1971
-61.3079
-62.3549
-63.3294
-64.2291
-65.0572
-65.8186
-66.5208
-67.1672
-67.7684
-68.3186
-68.838
-69.2868
-69.695
-56.3798
-56.628
-57.0995
-57.8102
-58.6864
-59.6393
-60.6094
-61.5645
-62.4859
-63.3617
-64.1853
-64.9551
-65.6716
-66.3383
-66.9559
-67.5305
-68.0572
-68.5466
-68.9707
-69.3322
-57.6361
-57.8255
-58.1874
-58.7409
-59.4397
-60.2211
-61.0379
-61.8612
-62.672
-63.4572
-64.2078
-64.9193
-65.589
-66.2174
-66.8034
-67.3497
-67.8517
-68.3142
-68.7168
-69.0478
-58.6722
-58.8215
-59.1077
-59.55
-60.1182
-60.7673
-61.4612
-62.1748
-62.8906
-63.5951
-64.2785
-64.9344
-65.5584
-66.1487
-66.7029
-67.2212
-67.6994
-68.1388
-68.5236
-68.8357
-59.5352
-59.6562
-59.8889
-60.2512
-60.7225
-61.2703
-61.8664
-62.4901
-63.1255
-63.7599
-64.3832
-64.9882
-65.5694
-66.1236
-66.6472
-67.1392
-67.5953
-68.0152
-68.3852
-68.6858
-60.2579
-60.3588
-60.553
-60.8571
-61.2567
-61.7269
-62.246
-62.797
-63.3657
-63.9404
-64.5113
-65.071
-65.6134
-66.1344
-66.6299
-67.0978
-67.5339
-67.9373
-68.295
-68.588
-60.8641
-60.9504
-61.117
-61.3789
-61.7252
-62.1368
-62.5961
-63.089
-63.6034
-64.1284
-64.6549
-65.1753
-65.6836
-66.1749
-66.6452
-67.0916
-67.5099
-67.8992
-68.2466
-68.5342
-61.3705
-61.4466
-61.5937
-61.8254
-62.1331
-62.501
-62.9148
-63.3626
-63.8338
-64.3185
-64.8081
-65.2955
-65.7745
-66.2403
-66.6884
-67.116
-67.5188
-67.896
-68.2347
-68.5181
-61.7891
-61.8584
-61.9923
-62.2035
-62.4843
-62.8211
-63.2016
-63.6155
-64.0535
-64.5065
-64.9668
-65.4272
-65.8819
-66.3261
-66.7554
-67.167
-67.5564
-67.9233
-68.2546
-68.5346
-62.128
-62.1937
-62.3201
-62.5189
-62.7827
-63.0988
-63.4564
-63.8463
-64.2601
-64.6896
-65.1272
-65.5666
-66.0019
-66.4285
-66.8422
-67.2403
-67.6185
-67.9765
-68.3015
-68.5787
-62.3913
-62.4582
-62.5841
-62.7788
-63.0346
-63.3396
-63.6838
-64.0587
-64.4564
-64.8695
-65.2909
-65.7145
-66.1348
-66.5476
-66.9486
-67.3356
-67.7042
-68.0546
-68.3735
-68.6468
-62.5748
-62.6512
-62.7874
-62.9891
-63.248
-63.5528
-63.8939
-64.2633
-64.6536
-65.0579
-65.4696
-65.8828
-66.2926
-66.6948
-67.0857
-67.4632
-67.8237
-68.1673
-68.4811
-68.7496
-62.6598
-62.7482
-62.9005
-63.1159
-63.3856
-63.6987
-64.0456
-64.4184
-64.81
-65.2137
-65.6231
-66.0329
-66.4382
-66.8351
-67.2203
-67.5919
-67.9469
-68.2859
-68.5988
-68.8707
)
;

boundaryField
{
    movingWall
    {
        type            zeroGradient;
    }
    bottomWall
    {
        type            zeroGradient;
    }
    leftSide
    {
        type            zeroGradient;
    }
    rightSide
    {
        type            zeroGradient;
    }
    frontAndBack
    {
        type            empty;
    }
}


// ************************************************************************* //
