/*--------------------------------*- C++ -*----------------------------------*\
| =========                 |                                                 |
| \\      /  F ield         | OpenFOAM: The Open Source CFD Toolbox           |
|  \\    /   O peration     | Version:  v1906                                 |
|   \\  /    A nd           | Web:      www.OpenFOAM.com                      |
|    \\/     M anipulation  |                                                 |
\*---------------------------------------------------------------------------*/
FoamFile
{
    version     2.0;
    format      ascii;
    class       surfaceScalarField;
    location    "0.2";
    object      phi;
}
// * * * * * * * * * * * * * * * * * * * * * * * * * * * * * * * * * * * * * //

dimensions      [0 3 -1 0 0 0 0];
oriented        oriented;


internalField   nonuniform List<scalar> 
760
(
0.000438211
6.17888e-05
0.000359163
7.90476e-05
0.000292407
6.67565e-05
0.000239278
5.31291e-05
0.000199334
3.99441e-05
0.000170458
2.88754e-05
0.000149804
2.06542e-05
0.000134839
1.49653e-05
0.000123684
1.11551e-05
0.000115062
8.6217e-06
0.000108153
6.90902e-06
0.000102445
5.70801e-06
9.76192e-05
4.82566e-06
9.34685e-05
4.15069e-06
8.98526e-05
3.61599e-06
8.66586e-05
3.19401e-06
8.3801e-05
2.85754e-06
8.11437e-05
2.65731e-06
7.86177e-05
2.52603e-06
3.00946e-06
0.000524274
3.75152e-05
0.000528066
7.52557e-05
0.000511928
8.28938e-05
0.000486056
7.90014e-05
0.000455316
7.06844e-05
0.000423662
6.05287e-05
0.00039381
5.05068e-05
0.000367033
4.17421e-05
0.000343657
3.45313e-05
0.000323513
2.87654e-05
0.000306216
2.42065e-05
0.000291321
2.06027e-05
0.000278417
1.77299e-05
0.000267152
1.54156e-05
0.000257244
1.35234e-05
0.000248459
1.19791e-05
0.000240618
1.0699e-05
0.00023353
9.7453e-06
0.000227064
8.99144e-06
8.79392e-06
0.000517013
2.05019e-05
0.000539014
5.32547e-05
0.00055188
7.00279e-05
0.000555305
7.55764e-05
0.000550763
7.52266e-05
0.000540031
7.12611e-05
0.000525208
6.5329e-05
0.000508182
5.87683e-05
0.000490343
5.23703e-05
0.000472623
4.64859e-05
0.000455596
4.12326e-05
0.000439579
3.66203e-05
0.000424706
3.26031e-05
0.000411003
2.91184e-05
0.000398433
2.60934e-05
0.000386937
2.34749e-05
0.000376422
2.12142e-05
0.0003669
1.92676e-05
0.000358132
1.77596e-05
1.60884e-05
0.000507959
1.25432e-05
0.000524957
3.62563e-05
0.000542178
5.28071e-05
0.000555757
6.19975e-05
0.000564699
6.62847e-05
0.000568791
6.71686e-05
0.000568461
6.56592e-05
0.000564552
6.26768e-05
0.000557981
5.89421e-05
0.000549553
5.49133e-05
0.00053993
5.08559e-05
0.000529628
4.69224e-05
0.000519033
4.3198e-05
0.000508433
3.9718e-05
0.000498019
3.6508e-05
0.000487965
3.35285e-05
0.00047831
3.08688e-05
0.00046933
2.82482e-05
0.000460766
2.63236e-05
2.32939e-05
0.000503902
8.64137e-06
0.000514552
2.56066e-05
0.000528006
3.93523e-05
0.000541271
4.87329e-05
0.000552973
5.45831e-05
0.000562355
5.77867e-05
0.000569058
5.89553e-05
0.000573109
5.86259e-05
0.000574769
5.72825e-05
0.000574387
5.52951e-05
0.000572323
5.29196e-05
0.00056892
5.03254e-05
0.00056448
4.76386e-05
0.000559279
4.4919e-05
0.000553526
4.22612e-05
0.000547462
3.95917e-05
0.000541174
3.71569e-05
0.000535006
3.44163e-05
0.000528798
3.25319e-05
2.88352e-05
0.000502257
6.38426e-06
0.000508886
1.89776e-05
0.000518239
2.99996e-05
0.000528562
3.84099e-05
0.000538802
4.43432e-05
0.000548306
4.82823e-05
0.000556628
5.06334e-05
0.000563524
5.173e-05
0.000568928
5.18785e-05
0.000572886
5.13368e-05
0.000575501
5.03048e-05
0.000576907
4.89191e-05
0.000577246
4.72995e-05
0.000576676
4.54891e-05
0.000575326
4.36118e-05
0.000573368
4.15494e-05
0.000570882
3.96429e-05
0.000568091
3.72069e-05
0.000564992
3.56311e-05
3.19955e-05
0.000501465
4.91892e-06
0.000505804
1.46393e-05
0.000512299
2.35042e-05
0.00051996
3.07493e-05
0.000528048
3.62547e-05
0.000536084
4.02459e-05
0.000543726
4.29918e-05
0.000550735
4.47212e-05
0.000556972
4.56409e-05
0.000562378
4.59312e-05
0.000566938
4.57444e-05
0.000570673
4.51845e-05
0.000573618
4.43544e-05
0.00057583
4.32773e-05
0.000577364
4.20775e-05
0.000578294
4.06195e-05
0.000578683
3.92536e-05
0.000578587
3.73037e-05
0.000578126
3.60918e-05
3.29697e-05
0.000501014
3.9045e-06
0.000504021
1.16326e-05
0.00050868
1.88457e-05
0.000514412
2.50167e-05
0.000520705
2.99619e-05
0.000527196
3.37547e-05
0.000533631
3.65568e-05
0.000539826
3.85264e-05
0.000545657
3.98101e-05
0.000551049
4.05393e-05
0.000555961
4.08326e-05
0.000560372
4.07727e-05
0.00056428
4.04467e-05
0.000567688
3.98695e-05
0.000570614
3.91514e-05
0.000573062
3.81719e-05
0.000575084
3.72316e-05
0.000576618
3.57689e-05
0.000577842
3.48678e-05
3.24127e-05
0.000500738
3.16699e-06
0.000502928
9.44222e-06
0.00050639
1.53836e-05
0.000510776
2.06307e-05
0.000515729
2.50085e-05
0.000520972
2.85125e-05
0.000526301
3.12271e-05
0.000531572
3.32555e-05
0.000536681
3.47012e-05
0.00054156
3.56606e-05
0.000546166
3.62264e-05
0.000550473
3.64659e-05
0.000554467
3.64526e-05
0.000558134
3.62024e-05
0.00056148
3.58057e-05
0.000564477
3.51742e-05
0.000567171
3.45383e-05
0.000569453
3.34868e-05
0.000571496
3.28248e-05
3.10033e-05
0.000500559
2.60807e-06
0.000502221
7.78048e-06
0.000504879
1.27257e-05
0.000508316
1.71935e-05
0.000512286
2.10381e-05
0.000516576
2.42226e-05
0.000521021
2.6782e-05
0.000525498
2.87784e-05
0.000529917
3.02823e-05
0.000534215
3.13632e-05
0.00053835
3.20913e-05
0.000542295
3.25213e-05
0.000546033
3.27138e-05
0.000549548
3.26881e-05
0.000552839
3.2514e-05
0.000555876
3.21378e-05
0.000558689
3.17247e-05
0.000561176
3.10005e-05
0.000563477
3.05239e-05
2.92318e-05
0.000500438
2.16976e-06
0.000501742
6.47678e-06
0.000503843
1.06243e-05
0.000506602
1.4435e-05
0.000509846
1.77939e-05
0.000513414
2.0655e-05
0.00051717
2.30253e-05
0.00052101
2.49387e-05
0.000524852
2.64406e-05
0.000528635
2.75794e-05
0.00053232
2.84069e-05
0.000535874
2.89668e-05
0.000539281
2.9307e-05
0.000542521
2.94481e-05
0.000545592
2.94428e-05
0.000548464
2.92658e-05
0.000551159
2.903e-05
0.000553593
2.85669e-05
0.000555873
2.82437e-05
2.73755e-05
0.000500354
1.81574e-06
0.000501408
5.42318e-06
0.000503115
8.91664e-06
0.000505382
1.21687e-05
0.000508085
1.50909e-05
0.000511101
1.76385e-05
0.000514322
1.98045e-05
0.000517656
2.16045e-05
0.000521031
2.30658e-05
0.00052439
2.42209e-05
0.000527689
2.5107e-05
0.000530898
2.57579e-05
0.000533996
2.62096e-05
0.000536961
2.64826e-05
0.000539788
2.66164e-05
0.000542449
2.66047e-05
0.000544958
2.65204e-05
0.000547253
2.62723e-05
0.000549412
2.60851e-05
2.55581e-05
0.000500294
1.52169e-06
0.00050117
4.5475e-06
0.000502595
7.49166e-06
0.000504501
1.02624e-05
0.000506799
1.27926e-05
0.000509395
1.50432e-05
0.000512198
1.7001e-05
0.000515132
1.86702e-05
0.000518132
2.00657e-05
0.000521145
2.12085e-05
0.000524128
2.21242e-05
0.000527048
2.28377e-05
0.000529882
2.33755e-05
0.000532608
2.37565e-05
0.000535215
2.40092e-05
0.000537681
2.41391e-05
0.000540012
2.41897e-05
0.000542159
2.41251e-05
0.000544182
2.40619e-05
2.38171e-05
0.000500251
1.27045e-06
0.000501
3.79887e-06
0.000502221
6.27016e-06
0.000503865
8.61923e-06
0.000505861
1.07962e-05
0.000508136
1.27683e-05
0.000510616
1.45204e-05
0.000513236
1.60504e-05
0.000515937
1.73647e-05
0.00051867
1.84756e-05
0.000521395
1.93997e-05
0.000524078
2.01546e-05
0.000526694
2.07592e-05
0.000529221
2.12297e-05
0.000531645
2.15852e-05
0.000533946
2.18384e-05
0.000536125
2.20107e-05
0.000538143
2.21064e-05
0.000540048
2.21567e-05
2.21522e-05
0.000500221
1.04929e-06
0.000500881
3.13933e-06
0.000501958
5.1927e-06
0.000503412
7.16537e-06
0.000505187
9.02091e-06
0.000507223
1.07328e-05
0.000509457
1.22858e-05
0.000511834
1.36742e-05
0.000514299
1.48988e-05
0.00051681
1.59653e-05
0.000519326
1.68833e-05
0.000521816
1.76645e-05
0.000524254
1.83212e-05
0.000526618
1.88662e-05
0.000528892
1.93112e-05
0.000531057
1.9673e-05
0.000533113
1.99552e-05
0.000535026
2.01928e-05
0.000536836
2.03468e-05
2.05512e-05
0.000500201
8.48099e-07
0.000500802
2.53844e-06
0.000501783
4.21158e-06
0.000503107
5.84131e-06
0.000504727
7.40118e-06
0.00050659
8.86964e-06
0.000508644
1.02324e-05
0.000510837
1.14813e-05
0.000513122
1.26131e-05
0.000515459
1.36287e-05
0.00051781
1.45319e-05
0.000520145
1.53293e-05
0.000522439
1.60275e-05
0.000524669
1.66361e-05
0.000526821
1.716e-05
0.000528875
1.76185e-05
0.00053083
1.80002e-05
0.000532658
1.83643e-05
0.000534393
1.86124e-05
1.90015e-05
0.000500192
6.56358e-07
0.000500762
1.96842e-06
0.000501688
3.2852e-06
0.000502933
4.59633e-06
0.000504453
5.88127e-06
0.000506201
7.12199e-06
0.000508128
8.30485e-06
0.000510189
9.42e-06
0.000512342
1.04609e-05
0.000514546
1.14241e-05
0.00051677
1.23088e-05
0.000518982
1.3117e-05
0.000521159
1.38503e-05
0.00052328
1.4515e-05
0.00052533
1.51101e-05
0.000527292
1.56562e-05
0.000529163
1.61291e-05
0.000530921
1.66072e-05
0.000532594
1.69389e-05
1.74929e-05
0.0005002
4.56187e-07
0.000500771
1.39717e-06
0.000501683
2.37362e-06
0.000502894
3.38569e-06
0.000504361
4.41418e-06
0.00050604
5.44312e-06
0.000507886
6.45875e-06
0.000509857
7.44921e-06
0.000511913
8.40482e-06
0.000514018
9.31848e-06
0.000516142
1.01852e-05
0.000518256
1.10028e-05
0.000520338
1.17682e-05
0.000522368
1.24845e-05
0.000524333
1.31454e-05
0.000526218
1.37719e-05
0.000528018
1.43289e-05
0.000529713
1.49119e-05
0.00053133
1.53223e-05
1.60109e-05
0.000500237
2.19364e-07
0.000500849
7.85273e-07
0.000501782
1.44075e-06
0.000502994
2.1731e-06
0.000504444
2.96451e-06
0.000506087
3.79951e-06
0.000507884
4.66272e-06
0.000509793
5.53991e-06
0.000511779
6.4185e-06
0.00051381
7.28804e-06
0.000515855
8.13975e-06
0.00051789
8.96752e-06
0.000519894
9.76422e-06
0.00052185
1.05292e-05
0.000523743
1.12522e-05
0.000525562
1.19524e-05
0.000527305
1.25865e-05
0.000528954
1.32621e-05
0.000530519
1.37571e-05
1.45395e-05
0.000500259
0.00050095
0.000501918
0.000503151
0.000504602
0.000506231
0.000508001
0.000509875
0.000511818
0.000513801
0.000515795
0.000517778
0.00051973
0.000521635
0.00052348
0.000525255
0.000526962
0.000528596
0.000530195
)
;

boundaryField
{
    movingWall
    {
        type            calculated;
        value           nonuniform List<scalar> 
20
(
-3.95291e-08
9.45699e-08
4.72183e-07
9.4059e-07
1.51363e-06
2.17006e-06
2.89286e-06
3.66627e-06
4.47504e-06
5.30543e-06
6.14512e-06
6.98444e-06
7.8123e-06
8.62486e-06
9.40721e-06
1.01769e-05
1.08802e-05
1.16278e-05
1.21577e-05
1.3233e-05
)
;
    }
    bottomWall
    {
        type            calculated;
        value           uniform 0;
    }
    leftSide
    {
        type            calculated;
        value           nonuniform List<scalar> 
20
(
-0.0005
-0.0005
-0.0005
-0.0005
-0.0005
-0.0005
-0.0005
-0.0005
-0.0005
-0.0005
-0.0005
-0.0005
-0.0005
-0.0005
-0.0005
-0.0005
-0.0005
-0.0005
-0.0005
-0.0005
)
;
    }
    rightSide
    {
        type            calculated;
        value           nonuniform List<scalar> 
20
(
7.56082e-05
0.00022128
0.000350837
0.00045356
0.000523257
0.000561832
0.000577152
0.000578399
0.000572905
0.000565248
0.000557729
0.000551229
0.000545923
0.000541713
0.000538437
0.000535943
0.000534103
0.000532812
0.000531991
0.000531502
)
;
    }
    frontAndBack
    {
        type            empty;
        value           nonuniform 0();
    }
}


// ************************************************************************* //
