/*--------------------------------*- C++ -*----------------------------------*\
| =========                 |                                                 |
| \\      /  F ield         | OpenFOAM: The Open Source CFD Toolbox           |
|  \\    /   O peration     | Version:  v1906                                 |
|   \\  /    A nd           | Web:      www.OpenFOAM.com                      |
|    \\/     M anipulation  |                                                 |
\*---------------------------------------------------------------------------*/
FoamFile
{
    version     2.0;
    format      ascii;
    class       volVectorField;
    location    "0.2";
    object      U;
}
// * * * * * * * * * * * * * * * * * * * * * * * * * * * * * * * * * * * * * //

dimensions      [0 1 -1 0 0 0 0];


internalField   nonuniform List<vector> 
400
(
(8.6662 0.593431 0)
(7.79132 0.90354 0)
(6.57326 0.803428 0)
(5.31098 0.604677 0)
(4.34052 0.414293 0)
(3.66128 0.266207 0)
(3.17993 0.166638 0)
(2.83124 0.105899 0)
(2.57421 0.0706126 0)
(2.37937 0.0503596 0)
(2.2262 0.038491 0)
(2.1015 0.0311294 0)
(1.99718 0.0261602 0)
(1.90812 0.0225324 0)
(1.83101 0.0197242 0)
(1.76327 0.0176158 0)
(1.70337 0.0161121 0)
(1.64841 0.0158925 0)
(1.59734 0.0166653 0)
(1.52792 0.0236582 0)
(10.0413 0.975995 0)
(10.488 1.68488 0)
(10.4902 1.73131 0)
(10.0581 1.54119 0)
(9.44042 1.27532 0)
(8.79137 1.00325 0)
(8.16853 0.76658 0)
(7.59819 0.581572 0)
(7.09429 0.445687 0)
(6.65887 0.34872 0)
(6.28569 0.279837 0)
(5.96542 0.230235 0)
(5.68906 0.193554 0)
(5.44867 0.165636 0)
(5.23825 0.143723 0)
(5.05187 0.12648 0)
(4.88746 0.112623 0)
(4.73612 0.103491 0)
(4.61089 0.0966483 0)
(4.43933 0.103729 0)
(10.0554 0.601915 0)
(10.523 1.32487 0)
(10.9341 1.59939 0)
(11.1229 1.63835 0)
(11.1025 1.5592 0)
(10.9356 1.41598 0)
(10.6709 1.24678 0)
(10.3452 1.07866 0)
(9.99013 0.925897 0)
(9.62968 0.793521 0)
(9.27927 0.681715 0)
(8.94724 0.588566 0)
(8.63778 0.511318 0)
(8.35165 0.447287 0)
(8.08962 0.393863 0)
(7.84798 0.349442 0)
(7.63153 0.312037 0)
(7.42271 0.282188 0)
(7.26397 0.258235 0)
(7.02332 0.241305 0)
(10.0219 0.333146 0)
(10.2905 0.871576 0)
(10.656 1.2028 0)
(10.992 1.37237 0)
(11.2296 1.43517 0)
(11.3599 1.42324 0)
(11.3943 1.36131 0)
(11.348 1.27148 0)
(11.2388 1.17011 0)
(11.0846 1.06724 0)
(10.9007 0.968361 0)
(10.6988 0.876315 0)
(10.4882 0.79226 0)
(10.2743 0.716431 0)
(10.0644 0.64851 0)
(9.85642 0.587805 0)
(9.66512 0.534418 0)
(9.46342 0.485512 0)
(9.32199 0.448217 0)
(9.07042 0.399156 0)
(10.0109 0.211464 0)
(10.1576 0.59714 0)
(10.4019 0.890901 0)
(10.6861 1.0848 0)
(10.9502 1.19913 0)
(11.1667 1.25274 0)
(11.3284 1.26043 0)
(11.4354 1.23592 0)
(11.4911 1.19093 0)
(11.502 1.13403 0)
(11.4757 1.07094 0)
(11.419 1.00538 0)
(11.3394 0.939921 0)
(11.2408 0.875884 0)
(11.1319 0.814751 0)
(11.009 0.755623 0)
(10.8926 0.70208 0)
(10.75 0.645742 0)
(10.661 0.60576 0)
(10.4573 0.534706 0)
(10.007 0.150584 0)
(10.095 0.436445 0)
(10.2519 0.676375 0)
(10.4566 0.854179 0)
(10.6724 0.975509 0)
(10.8756 1.05176 0)
(11.0561 1.09245 0)
(11.2092 1.10573 0)
(11.3325 1.09889 0)
(11.4258 1.07784 0)
(11.491 1.04703 0)
(11.5302 1.00956 0)
(11.5473 0.967996 0)
(11.5432 0.923457 0)
(11.5251 0.878335 0)
(11.4876 0.830692 0)
(11.4499 0.786858 0)
(11.3813 0.733935 0)
(11.35 0.698974 0)
(11.2229 0.622566 0)
(10.0049 0.113601 0)
(10.0625 0.332409 0)
(10.1673 0.52573 0)
(10.3121 0.679901 0)
(10.4757 0.794287 0)
(10.6414 0.87495 0)
(10.8004 0.928182 0)
(10.948 0.959285 0)
(11.0812 0.973013 0)
(11.198 0.973437 0)
(11.2978 0.963907 0)
(11.3804 0.946742 0)
(11.4473 0.924166 0)
(11.4978 0.896801 0)
(11.5364 0.86724 0)
(11.5578 0.832793 0)
(11.576 0.800745 0)
(11.568 0.756894 0)
(11.5799 0.729424 0)
(11.5249 0.660331 0)
(10.0035 0.0886905 0)
(10.0437 0.260857 0)
(10.1173 0.417868 0)
(10.2224 0.549761 0)
(10.3463 0.653539 0)
(10.4774 0.731655 0)
(10.6085 0.788018 0)
(10.7358 0.826287 0)
(10.8567 0.849828 0)
(10.9694 0.86161 0)
(11.0728 0.864242 0)
(11.1659 0.859531 0)
(11.2494 0.849362 0)
(11.322 0.834057 0)
(11.3862 0.815998 0)
(11.438 0.792519 0)
(11.4857 0.770296 0)
(11.5151 0.736653 0)
(11.5515 0.71603 0)
(11.5471 0.660005 0)
(10.0026 0.0710243 0)
(10.032 0.209668 0)
(10.0861 0.338746 0)
(10.1649 0.451224 0)
(10.2606 0.543683 0)
(10.3648 0.616562 0)
(10.472 0.672036 0)
(10.5789 0.712567 0)
(10.6833 0.740567 0)
(10.7836 0.758242 0)
(10.8787 0.767656 0)
(10.9679 0.770275 0)
(11.0512 0.76769 0)
(11.1275 0.760183 0)
(11.1982 0.749769 0)
(11.2606 0.734327 0)
(11.3191 0.719166 0)
(11.3659 0.694533 0)
(11.4123 0.67926 0)
(11.4356 0.636872 0)
(10.002 0.057961 0)
(10.0244 0.171573 0)
(10.0657 0.278816 0)
(10.1266 0.374728 0)
(10.2021 0.456259 0)
(10.2864 0.522912 0)
(10.3749 0.575715 0)
(10.4648 0.616208 0)
(10.5543 0.64606 0)
(10.6418 0.666883 0)
(10.7265 0.68027 0)
(10.8074 0.687414 0)
(10.8844 0.689645 0)
(10.9568 0.687319 0)
(11.0252 0.682025 0)
(11.0881 0.672353 0)
(11.1472 0.662198 0)
(11.1991 0.644826 0)
(11.2472 0.633636 0)
(11.2818 0.603029 0)
(10.0016 0.047927 0)
(10.0192 0.142162 0)
(10.0517 0.231986 0)
(10.1001 0.313866 0)
(10.1611 0.385319 0)
(10.2304 0.445504 0)
(10.3046 0.49476 0)
(10.3811 0.533967 0)
(10.4584 0.564226 0)
(10.535 0.586675 0)
(10.61 0.6025 0)
(10.6825 0.612667 0)
(10.7523 0.618254 0)
(10.8188 0.619662 0)
(10.8821 0.618092 0)
(10.9414 0.61279 0)
(10.9973 0.606477 0)
(11.0481 0.594862 0)
(11.0945 0.586954 0)
(11.1311 0.565818 0)
(10.0013 0.0399623 0)
(10.0155 0.11873 0)
(10.0419 0.194369 0)
(10.0814 0.264333 0)
(10.1318 0.326675 0)
(10.1898 0.380504 0)
(10.2529 0.425782 0)
(10.319 0.462952 0)
(10.3865 0.492699 0)
(10.4541 0.515796 0)
(10.521 0.533109 0)
(10.5863 0.545398 0)
(10.6495 0.553491 0)
(10.7102 0.557794 0)
(10.7682 0.559213 0)
(10.823 0.557475 0)
(10.8749 0.554377 0)
(10.9226 0.547431 0)
(10.9663 0.542374 0)
(11.0011 0.528786 0)
(10.0011 0.0334521 0)
(10.0129 0.099524 0)
(10.0349 0.163355 0)
(10.068 0.223098 0)
(10.1105 0.277256 0)
(10.1601 0.325012 0)
(10.2146 0.366149 0)
(10.2724 0.400833 0)
(10.3321 0.429459 0)
(10.3926 0.452537 0)
(10.4528 0.470676 0)
(10.512 0.484448 0)
(10.5697 0.494466 0)
(10.6254 0.501122 0)
(10.6788 0.505087 0)
(10.7295 0.506377 0)
(10.7777 0.506111 0)
(10.822 0.503101 0)
(10.8632 0.500638 0)
(10.8951 0.493193 0)
(10.0009 0.0279775 0)
(10.0111 0.0833388 0)
(10.0299 0.137108 0)
(10.0583 0.187955 0)
(10.0951 0.234747 0)
(10.1383 0.276785 0)
(10.1863 0.313782 0)
(10.2376 0.345742 0)
(10.2912 0.372861 0)
(10.3458 0.395456 0)
(10.4006 0.413934 0)
(10.4548 0.428707 0)
(10.508 0.440219 0)
(10.5595 0.448824 0)
(10.6092 0.454986 0)
(10.6564 0.458898 0)
(10.7014 0.461187 0)
(10.7428 0.461591 0)
(10.7818 0.461504 0)
(10.811 0.459222 0)
(10.0008 0.023238 0)
(10.0097 0.0693046 0)
(10.0263 0.114283 0)
(10.0514 0.157247 0)
(10.084 0.197358 0)
(10.1226 0.234041 0)
(10.1656 0.266996 0)
(10.212 0.296133 0)
(10.2607 0.321517 0)
(10.3107 0.343318 0)
(10.3612 0.361785 0)
(10.4114 0.377204 0)
(10.4609 0.38988 0)
(10.509 0.400102 0)
(10.5555 0.408167 0)
(10.5999 0.414383 0)
(10.6424 0.418982 0)
(10.6813 0.42239 0)
(10.7187 0.424472 0)
(10.7455 0.426652 0)
(10.0007 0.0190039 0)
(10.0089 0.0567643 0)
(10.024 0.0938709 0)
(10.0469 0.12972 0)
(10.0766 0.163709 0)
(10.1117 0.195378 0)
(10.1512 0.224439 0)
(10.1939 0.25075 0)
(10.239 0.274284 0)
(10.2854 0.2951 0)
(10.3325 0.313324 0)
(10.3795 0.329137 0)
(10.426 0.34272 0)
(10.4713 0.354297 0)
(10.5153 0.364028 0)
(10.5572 0.372281 0)
(10.5977 0.378963 0)
(10.6347 0.385041 0)
(10.6707 0.389093 0)
(10.6957 0.39517 0)
(10.0007 0.0150549 0)
(10.0084 0.0451326 0)
(10.0228 0.0750304 0)
(10.0443 0.10438 0)
(10.0722 0.132745 0)
(10.1052 0.159754 0)
(10.1422 0.185138 0)
(10.1824 0.208722 0)
(10.2247 0.23041 0)
(10.2685 0.250173 0)
(10.313 0.268039 0)
(10.3575 0.284092 0)
(10.4015 0.29841 0)
(10.4446 0.311155 0)
(10.4865 0.322359 0)
(10.5265 0.332426 0)
(10.5652 0.340995 0)
(10.6005 0.349462 0)
(10.6354 0.355292 0)
(10.6589 0.364737 0)
(10.0007 0.0110614 0)
(10.0086 0.0335626 0)
(10.0229 0.0565803 0)
(10.044 0.0798491 0)
(10.071 0.102998 0)
(10.1028 0.125701 0)
(10.1383 0.14769 0)
(10.1767 0.168755 0)
(10.2171 0.188732 0)
(10.2589 0.207517 0)
(10.3014 0.22505 0)
(10.3439 0.241327 0)
(10.386 0.256334 0)
(10.4272 0.270163 0)
(10.4674 0.282738 0)
(10.5057 0.29448 0)
(10.543 0.304796 0)
(10.5769 0.315439 0)
(10.6108 0.322924 0)
(10.633 0.335455 0)
(10.0008 0.00656714 0)
(10.0096 0.0207897 0)
(10.0247 0.036516 0)
(10.0461 0.0534574 0)
(10.073 0.0712439 0)
(10.1042 0.0895537 0)
(10.1388 0.108095 0)
(10.1761 0.126604 0)
(10.2152 0.14485 0)
(10.2555 0.162648 0)
(10.2965 0.179852 0)
(10.3374 0.196368 0)
(10.3779 0.212086 0)
(10.4176 0.227023 0)
(10.4563 0.241004 0)
(10.4932 0.254429 0)
(10.5293 0.266488 0)
(10.5621 0.279238 0)
(10.5951 0.288364 0)
(10.6164 0.304255 0)
(10.001 0.00224734 0)
(10.0109 0.00881371 0)
(10.027 0.0176416 0)
(10.049 0.0284677 0)
(10.0761 0.0409752 0)
(10.1072 0.0548607 0)
(10.1414 0.0698246 0)
(10.178 0.0855758 0)
(10.2164 0.101838 0)
(10.2558 0.118365 0)
(10.2958 0.13494 0)
(10.3357 0.151394 0)
(10.3752 0.167533 0)
(10.4138 0.1833 0)
(10.4515 0.198427 0)
(10.4875 0.213279 0)
(10.5228 0.226852 0)
(10.5549 0.241371 0)
(10.5877 0.251856 0)
(10.6086 0.270165 0)
)
;

boundaryField
{
    movingWall
    {
        type            zeroGradient;
    }
    bottomWall
    {
        type            noSlip;
    }
    leftSide
    {
        type            fixedValue;
        value           uniform (10 0 0);
    }
    rightSide
    {
        type            zeroGradient;
    }
    frontAndBack
    {
        type            empty;
    }
}


// ************************************************************************* //
