/*--------------------------------*- C++ -*----------------------------------*\
| =========                 |                                                 |
| \\      /  F ield         | OpenFOAM: The Open Source CFD Toolbox           |
|  \\    /   O peration     | Version:  v1906                                 |
|   \\  /    A nd           | Web:      www.OpenFOAM.com                      |
|    \\/     M anipulation  |                                                 |
\*---------------------------------------------------------------------------*/
FoamFile
{
    version     2.0;
    format      ascii;
    class       volScalarField;
    location    "1500/baffle3DRegion";
    object      T;
}
// * * * * * * * * * * * * * * * * * * * * * * * * * * * * * * * * * * * * * //

dimensions      [0 0 0 1 0 0 0];


internalField   nonuniform List<scalar> 
800
(
375.268
381.818
388.097
394.106
399.843
405.309
410.505
415.429
420.083
424.466
428.578
432.419
435.99
439.29
442.319
445.078
447.566
449.783
451.729
453.405
454.81
455.945
456.808
457.401
457.723
457.775
457.555
457.065
456.304
455.273
453.97
452.396
450.552
448.437
446.05
443.393
440.465
437.266
433.795
430.054
426.041
421.757
417.202
412.375
407.278
401.909
396.268
390.356
384.172
377.717
374.428
380.921
387.147
393.108
398.802
404.23
409.391
414.286
418.913
423.273
427.365
431.19
434.748
438.037
441.058
443.811
446.296
448.513
450.461
452.141
453.551
454.694
455.567
456.171
456.507
456.573
456.37
455.898
455.157
454.147
452.867
451.318
449.5
447.413
445.056
442.429
439.533
436.368
432.933
429.229
425.256
421.013
416.5
411.719
406.667
401.347
395.757
389.898
383.77
377.373
367.24
373.933
380.351
386.495
392.365
397.962
403.284
408.334
413.109
417.612
421.841
425.797
429.479
432.889
436.026
438.89
441.481
443.8
445.845
447.619
449.119
450.347
451.303
451.986
452.397
452.535
452.401
451.995
451.316
450.365
449.142
447.647
445.879
443.84
441.528
438.944
436.088
432.96
429.56
425.888
421.943
417.727
413.239
408.478
403.446
398.141
392.565
386.716
380.595
374.202
362.379
369.121
375.588
381.781
387.701
393.347
398.72
403.818
408.643
413.195
417.472
421.477
425.207
428.664
431.848
434.758
437.395
439.759
441.849
443.665
445.208
446.478
447.475
448.198
448.648
448.825
448.728
448.358
447.715
446.799
445.609
444.146
442.41
440.401
438.118
435.563
432.734
429.631
426.256
422.607
418.685
414.49
410.021
405.28
400.264
394.976
389.414
383.579
377.471
371.089
359.339
366.097
372.582
378.794
384.732
390.398
395.79
400.909
405.756
410.329
414.629
418.655
422.409
425.89
429.098
432.032
434.694
437.082
439.197
441.04
442.609
443.905
444.929
445.679
446.156
446.36
446.291
445.949
445.334
444.446
443.285
441.851
440.144
438.164
435.911
433.385
430.586
427.514
424.169
420.551
416.66
412.496
408.059
403.349
398.366
393.11
387.581
381.779
375.704
369.356
357.395
364.167
370.667
376.894
382.848
388.53
393.939
399.075
403.939
408.53
412.848
416.893
420.666
424.166
427.393
430.348
433.03
435.439
437.576
439.44
441.031
442.35
443.396
444.169
444.67
444.898
444.854
444.537
443.947
443.085
441.95
440.542
438.862
436.91
434.684
432.187
429.416
426.373
423.058
419.47
415.61
411.477
407.071
402.393
397.443
392.22
386.725
380.957
374.917
368.605
356.155
362.941
369.453
375.694
381.662
387.357
392.78
397.93
402.808
407.413
411.746
415.807
419.595
423.11
426.353
429.324
432.022
434.447
436.6
438.481
440.089
441.425
442.489
443.28
443.798
444.044
444.018
443.719
443.148
442.305
441.189
439.801
438.14
436.207
434.002
431.524
428.774
425.751
422.456
418.889
415.049
410.937
406.553
401.896
396.967
391.766
386.292
380.546
374.528
368.237
355.427
362.221
368.743
374.993
380.97
386.675
392.108
397.268
402.156
406.772
411.115
415.186
418.985
422.512
425.766
428.748
431.458
433.895
436.06
437.953
439.574
440.923
441.999
442.803
443.335
443.595
443.582
443.298
442.741
441.912
440.811
439.438
437.793
435.876
433.686
431.225
428.491
425.485
422.207
418.657
414.835
410.741
406.375
401.737
396.826
391.644
386.19
380.463
374.465
368.194
355.087
361.881
368.404
374.654
380.631
386.336
391.77
396.93
401.819
406.436
410.78
414.853
418.653
422.181
425.437
428.422
431.134
433.574
435.743
437.639
439.264
440.617
441.698
442.507
443.045
443.311
443.305
443.027
442.478
441.656
440.564
439.199
437.563
435.656
433.477
431.026
428.304
425.31
422.044
418.508
414.699
410.619
406.268
401.645
396.75
391.585
386.147
380.438
374.458
368.206
355.123
361.887
368.379
374.599
380.547
386.224
391.629
396.763
401.625
406.215
410.534
414.581
418.357
421.861
425.095
428.056
430.747
433.167
435.315
437.192
438.798
440.133
441.198
441.991
442.513
442.765
442.746
442.456
441.896
441.065
439.963
438.591
436.949
435.036
432.853
430.4
427.677
424.683
421.42
417.886
414.083
410.01
405.667
401.054
396.172
391.02
385.599
379.908
373.948
367.719
355.019
361.717
368.144
374.298
380.181
385.791
391.13
396.196
400.991
405.515
409.766
413.746
417.455
420.892
424.058
426.952
429.575
431.927
434.008
435.818
437.357
438.625
439.622
440.348
440.804
440.989
440.904
440.548
439.922
439.025
437.858
436.422
434.715
432.738
430.491
427.975
425.189
422.133
418.808
415.213
411.35
407.217
402.815
398.144
393.204
387.996
382.519
376.774
370.761
364.479
355.113
361.685
367.984
374.011
379.766
385.249
390.46
395.398
400.064
404.459
408.581
412.431
416.009
419.316
422.35
425.112
427.602
429.82
431.767
433.441
434.844
435.974
436.833
437.42
437.736
437.779
437.551
437.051
436.279
435.235
433.92
432.333
430.474
428.344
425.941
423.268
420.322
417.105
413.617
409.857
405.825
401.522
396.947
392.1
386.982
381.592
375.931
369.998
363.794
357.319
355.442
361.869
368.024
373.906
379.515
384.852
389.916
394.708
399.227
403.474
407.448
411.149
414.578
417.734
420.618
423.23
425.569
427.635
429.429
430.95
432.199
433.175
433.879
434.31
434.468
434.354
433.967
433.307
432.374
431.169
429.691
427.94
425.916
423.619
421.049
418.206
415.09
411.7
408.038
404.102
399.892
395.409
390.653
385.622
380.319
374.741
368.889
362.764
356.364
349.69
356.535
362.777
368.75
374.453
379.887
385.05
389.945
394.569
398.924
403.009
406.823
410.368
413.643
416.648
419.382
421.847
424.04
425.964
427.617
429
430.112
430.953
431.523
431.823
431.852
431.609
431.096
430.312
429.256
427.929
426.331
424.462
422.321
419.908
417.224
414.268
411.041
407.541
403.77
399.727
395.411
390.824
385.964
380.833
375.429
369.752
363.803
357.582
351.088
344.322
355.192
361.278
367.103
372.666
377.967
383.005
387.779
392.29
396.536
400.518
404.234
407.685
410.87
413.789
416.441
418.826
420.943
422.794
424.376
425.69
426.736
427.513
428.021
428.26
428.23
427.931
427.362
426.523
425.415
424.036
422.387
420.468
418.278
415.818
413.087
410.086
406.813
403.27
399.455
395.37
391.013
386.385
381.486
376.316
370.875
365.162
359.178
352.922
346.396
339.598
342.594
349.147
355.416
361.401
367.102
372.52
377.656
382.509
387.08
391.37
395.378
399.105
402.551
405.716
408.602
411.207
413.533
415.579
417.345
418.833
420.041
420.971
421.622
421.994
422.088
421.903
421.441
420.7
419.681
418.385
416.811
414.959
412.829
410.422
407.737
404.775
401.535
398.018
394.224
390.152
385.803
381.176
376.272
371.091
365.633
359.897
353.884
347.593
341.025
334.179
)
;

boundaryField
{
    bottom
    {
        type            compressible::thermalBaffle;
        refValue        nonuniform List<scalar> 
16
(
306.482
306.671
306.85
306.899
306.936
306.997
307.095
307.229
307.408
307.649
307.93
308.339
308.786
309.632
310.297
307.332
)
;
        refGradient     uniform 0;
        valueFraction   nonuniform List<scalar> 
16
(
0.0495849
0.0498682
0.0576825
0.0632211
0.0670858
0.0698967
0.0719309
0.0733124
0.0741092
0.0741008
0.074017
0.0731587
0.0718056
0.0694182
0.0706798
0.0969616
)
;
        value           nonuniform List<scalar> 
16
(
372.049
371.12
363.768
358.859
355.808
353.856
352.611
351.878
351.54
351.588
351.516
351.672
352.072
353.259
351.996
339.153
)
;
        Tnbr            T;
        qrNbr           none;
        qr              none;
        thermalInertia  false;
        thicknessLayers 0();
        kappaLayers     0();
        kappaMethod     solidThermo;
        kappa           none;
        alphaAni        none;
    }
    top
    {
        type            compressible::thermalBaffle;
        refValue        nonuniform List<scalar> 
16
(
309.886
310.15
310.584
310.983
311.432
311.95
312.529
313.26
314.083
315.37
315.364
311.994
307.816
305.711
304.475
303.271
)
;
        refGradient     uniform 0;
        valueFraction   nonuniform List<scalar> 
16
(
0.0495849
0.0495849
0.0523811
0.055363
0.0571531
0.058115
0.0589055
0.0595505
0.060263
0.0620687
0.0666761
0.0744336
0.082967
0.0911535
0.100637
0.115233
)
;
        value           nonuniform List<scalar> 
16
(
374.149
373.941
370.848
367.754
366.044
365.313
364.959
364.929
364.953
364.473
361.19
353.901
346.183
340.783
336.049
330.608
)
;
        Tnbr            T;
        qrNbr           none;
        qr              none;
        thermalInertia  false;
        thicknessLayers 0();
        kappaLayers     0();
        kappaMethod     solidThermo;
        kappa           none;
        alphaAni        none;
    }
    side
    {
        type            zeroGradient;
    }
}


// ************************************************************************* //
