/*--------------------------------*- C++ -*----------------------------------*\
| =========                 |                                                 |
| \\      /  F ield         | OpenFOAM: The Open Source CFD Toolbox           |
|  \\    /   O peration     | Version:  v1906                                 |
|   \\  /    A nd           | Web:      www.OpenFOAM.com                      |
|    \\/     M anipulation  |                                                 |
\*---------------------------------------------------------------------------*/
FoamFile
{
    version     2.0;
    format      ascii;
    class       surfaceScalarField;
    location    "0.65";
    object      phi;
}
// * * * * * * * * * * * * * * * * * * * * * * * * * * * * * * * * * * * * * //

dimensions      [0 3 -1 0 0 0 0];
oriented        oriented;


internalField   nonuniform List<scalar> 
3120
(
0.000206239
4.37606e-05
0.000158186
4.80538e-05
0.000122477
3.57084e-05
9.75337e-05
2.49436e-05
8.05647e-05
1.6969e-05
6.89736e-05
1.15911e-05
6.08093e-05
8.1643e-06
5.48071e-05
6.00219e-06
5.01989e-05
4.60821e-06
4.65251e-05
3.67383e-06
4.35073e-05
3.01779e-06
4.09713e-05
2.53605e-06
3.88026e-05
2.16863e-06
3.69227e-05
1.8799e-06
3.52751e-05
1.64759e-06
3.3818e-05
1.45713e-06
3.25195e-05
1.29855e-06
3.13547e-05
1.16478e-06
3.0304e-05
1.05066e-06
2.93517e-05
9.52312e-07
2.84849e-05
8.6679e-07
2.76931e-05
7.91798e-07
2.69676e-05
7.25532e-07
2.6301e-05
6.66552e-07
2.56873e-05
6.13699e-07
2.51213e-05
5.6603e-07
2.45985e-05
5.22771e-07
2.41152e-05
4.83289e-07
2.36682e-05
4.47063e-07
2.32545e-05
4.13677e-07
2.28717e-05
3.82813e-07
2.25174e-05
3.54262e-07
2.21895e-05
3.27973e-07
2.18853e-05
3.04143e-07
2.16018e-05
2.83484e-07
2.1334e-05
2.67797e-07
2.10733e-05
2.60722e-07
2.08037e-05
2.69582e-07
2.04875e-05
3.16176e-07
4.17486e-07
0.000263187
3.05734e-05
0.000258016
5.32249e-05
0.000240816
5.29084e-05
0.000219922
4.58377e-05
0.000199287
3.76042e-05
0.000180836
3.0042e-05
0.00016513
2.38701e-05
0.000152005
1.91274e-05
0.000141055
1.55579e-05
0.000131859
1.28698e-05
0.000124055
1.08219e-05
0.000117356
9.23496e-06
0.000111543
7.98215e-06
0.000106447
6.97512e-06
0.000101943
6.15226e-06
9.79299e-05
5.46999e-06
9.43315e-05
4.89694e-06
9.10862e-05
4.41011e-06
8.81445e-05
3.99229e-06
8.54664e-05
3.63038e-06
8.3019e-05
3.31426e-06
8.07748e-05
3.03599e-06
7.8711e-05
2.78928e-06
7.68085e-05
2.56905e-06
7.5051e-05
2.37121e-06
7.34247e-05
2.19238e-06
7.19176e-05
2.02981e-06
7.05197e-05
1.8812e-06
6.92221e-05
1.74467e-06
6.80171e-05
1.61868e-06
6.68979e-05
1.50205e-06
6.58582e-05
1.39395e-06
6.48921e-05
1.29402e-06
6.39937e-05
1.20261e-06
6.31559e-05
1.12125e-06
6.237e-05
1.05366e-06
6.16233e-05
1.00744e-06
6.08983e-05
9.94619e-07
6.01778e-05
1.03668e-06
1.17153e-06
0.000262609
1.7964e-05
0.000274173
4.16612e-05
0.0002766
5.04813e-05
0.000271592
5.08455e-05
0.000261872
4.73248e-05
0.000249734
4.21798e-05
0.00023686
3.67441e-05
0.000224275
3.17122e-05
0.0002125
2.73334e-05
0.000201737
2.36326e-05
0.000192014
2.05451e-05
0.00018327
1.79789e-05
0.00017541
1.58417e-05
0.000168333
1.40523e-05
0.000161942
1.25435e-05
0.00015615
1.12615e-05
0.000150884
1.01636e-05
0.000146078
9.21602e-06
0.000141678
8.39211e-06
0.000137638
7.67063e-06
0.000133917
7.03458e-06
0.000130483
6.47024e-06
0.000127306
5.96645e-06
0.000124361
5.51407e-06
0.000121626
5.10556e-06
0.000119084
4.73464e-06
0.000116718
4.39608e-06
0.000114514
4.0855e-06
0.000112459
3.79923e-06
0.000110543
3.53425e-06
0.000108757
3.28815e-06
0.000107092
3.05915e-06
0.00010554
2.84621e-06
0.000104093
2.64936e-06
0.000102744
2.47014e-06
0.000101485
2.31269e-06
0.000100307
2.18532e-06
9.92014e-05
2.10072e-06
9.81669e-05
2.07115e-06
2.14735e-06
0.000257134
1.08304e-05
0.000269219
2.95758e-05
0.000278763
4.09376e-05
0.000283574
4.60344e-05
0.00028384
4.70581e-05
0.00028046
4.55601e-05
0.000274531
4.2673e-05
0.000267051
3.91925e-05
0.000258783
3.56015e-05
0.000250257
3.21584e-05
0.000241816
2.89865e-05
0.000233664
2.61311e-05
0.000225912
2.35936e-05
0.00021861
2.13536e-05
0.000211772
1.93814e-05
0.000205389
1.76448e-05
0.00019944
1.6113e-05
0.000193898
1.4758e-05
0.000188735
1.35553e-05
0.000183922
1.24834e-05
0.000179432
1.15241e-05
0.000175241
1.06618e-05
0.000171324
9.8834e-06
0.00016766
9.17751e-06
0.000164231
8.53455e-06
0.00016102
7.94629e-06
0.00015801
7.4057e-06
0.000155189
6.90675e-06
0.000152544
6.44429e-06
0.000150064
6.01398e-06
0.00014774
5.61222e-06
0.000145563
5.23619e-06
0.000143525
4.88399e-06
0.00014162
4.55481e-06
0.000139841
4.24942e-06
0.000138182
3.97085e-06
0.000136642
3.72542e-06
0.000135219
3.5241e-06
0.000133922
3.36784e-06
3.31339e-06
0.00025373
7.10019e-06
0.000262407
2.08988e-05
0.000271916
3.14292e-05
0.000279808
3.81421e-05
0.000285125
4.17414e-05
0.000287679
4.30055e-05
0.000287729
4.26231e-05
0.000285742
4.11794e-05
0.000282224
3.91198e-05
0.000277629
3.67535e-05
0.000272332
3.42838e-05
0.000266624
3.1839e-05
0.000260722
2.94952e-05
0.000254783
2.72931e-05
0.000248913
2.52506e-05
0.000243187
2.33714e-05
0.000237649
2.16509e-05
0.000232327
2.00796e-05
0.000227236
1.8646e-05
0.000222382
1.73378e-05
0.000217763
1.61426e-05
0.000213376
1.50488e-05
0.000209214
1.40456e-05
0.000205269
1.31231e-05
0.000201531
1.22724e-05
0.000197992
1.14854e-05
0.000194642
1.0755e-05
0.000191474
1.00748e-05
0.000188479
9.43919e-06
0.00018565
8.84319e-06
0.00018298
8.28258e-06
0.000180462
7.75385e-06
0.000178092
7.25429e-06
0.000175864
6.78216e-06
0.000173777
6.33698e-06
0.000171828
5.91998e-06
0.000170019
5.53409e-06
0.000168356
5.18751e-06
0.000166852
4.87177e-06
4.63082e-06
0.00025204
5.05971e-06
0.000257655
1.52842e-05
0.000265018
2.40666e-05
0.000272497
3.06626e-05
0.000279074
3.51648e-05
0.000284189
3.78905e-05
0.000287628
3.91844e-05
0.000289419
3.93878e-05
0.000289732
3.8807e-05
0.000288794
3.76912e-05
0.000286846
3.62322e-05
0.000284112
3.45725e-05
0.000280793
3.28148e-05
0.000277054
3.10313e-05
0.000273034
2.92706e-05
0.000268842
2.75641e-05
0.000264562
2.59311e-05
0.000260259
2.4382e-05
0.000255984
2.29211e-05
0.000251773
2.15488e-05
0.000247653
2.02629e-05
0.000243642
1.90593e-05
0.000239755
1.79331e-05
0.000235999
1.68789e-05
0.00023238
1.58911e-05
0.000228902
1.4964e-05
0.000225565
1.40923e-05
0.000222369
1.32709e-05
0.000219313
1.24949e-05
0.000216396
1.17598e-05
0.000213617
1.10617e-05
0.000210974
1.03969e-05
0.000208466
9.76238e-06
0.000206092
9.15566e-06
0.000203854
8.57504e-06
0.000201754
8.01991e-06
0.000199799
7.4897e-06
0.000197997
6.9891e-06
0.000196363
6.50548e-06
6.04472e-06
0.000251216
3.84348e-06
0.000254833
1.16679e-05
0.0002601
1.87987e-05
0.000266104
2.46594e-05
0.000272111
2.91574e-05
0.000277603
3.2399e-05
0.000282245
3.45416e-05
0.00028587
3.57629e-05
0.000288433
3.6244e-05
0.000289973
3.61514e-05
0.000290577
3.56279e-05
0.000290359
3.47911e-05
0.000289438
3.37356e-05
0.000287934
3.25355e-05
0.000285957
3.12479e-05
0.000283605
2.99159e-05
0.000280965
2.85712e-05
0.00027811
2.72368e-05
0.000275102
2.59287e-05
0.000271993
2.46578e-05
0.000268825
2.34308e-05
0.000265633
2.22517e-05
0.000262444
2.11221e-05
0.000259281
2.00419e-05
0.000256162
1.90102e-05
0.000253101
1.8025e-05
0.000250109
1.70838e-05
0.000247196
1.6184e-05
0.000244369
1.53224e-05
0.000241633
1.4496e-05
0.000238993
1.37018e-05
0.000236453
1.29367e-05
0.000234017
1.21978e-05
0.000231691
1.14824e-05
0.000229478
1.0788e-05
0.000227385
1.01124e-05
0.000225423
9.45231e-06
0.000223604
8.80812e-06
0.000221939
8.17033e-06
7.48436e-06
0.000250791
3.05206e-06
0.00025321
9.24901e-06
0.000256942
1.50673e-05
0.000261492
2.01089e-05
0.000266403
2.42468e-05
0.0002713
2.75014e-05
0.000275899
2.99431e-05
0.000279998
3.16634e-05
0.000283477
3.27651e-05
0.000286277
3.33513e-05
0.000288388
3.35172e-05
0.000289832
3.33472e-05
0.000290653
3.29142e-05
0.000290909
3.22794e-05
0.000290663
3.1494e-05
0.00028998
3.05996e-05
0.000288921
2.96297e-05
0.000287547
2.86111e-05
0.000285911
2.75648e-05
0.000284062
2.65068e-05
0.000282043
2.54496e-05
0.000279892
2.44022e-05
0.000277643
2.33713e-05
0.000275324
2.23612e-05
0.000272959
2.1375e-05
0.00027057
2.04142e-05
0.000268174
1.94795e-05
0.000265787
1.85705e-05
0.000263423
1.76865e-05
0.000261093
1.68261e-05
0.000258807
1.59877e-05
0.000256575
1.51692e-05
0.000254404
1.43683e-05
0.000252304
1.35824e-05
0.000250284
1.28086e-05
0.000248352
1.20437e-05
0.000246522
1.12827e-05
0.000244809
1.05212e-05
0.00024322
9.75952e-06
8.87089e-06
0.000250553
2.4987e-06
0.000252251
7.55138e-06
0.000254946
1.23721e-05
0.000258366
1.6689e-05
0.000262229
2.0384e-05
0.000266287
2.34429e-05
0.000270335
2.58955e-05
0.000274207
2.77914e-05
0.000277781
2.91912e-05
0.000280973
3.01594e-05
0.000283731
3.07586e-05
0.000286032
3.10467e-05
0.00028787
3.1076e-05
0.000289257
3.08923e-05
0.000290215
3.05358e-05
0.000290774
3.00408e-05
0.000290967
2.94366e-05
0.000290831
2.87478e-05
0.0002904
2.7995e-05
0.000289712
2.71951e-05
0.0002888
2.63619e-05
0.000287695
2.55067e-05
0.000286428
2.46384e-05
0.000285025
2.37641e-05
0.000283512
2.28889e-05
0.000281909
2.2017e-05
0.000280237
2.11512e-05
0.000278514
2.02932e-05
0.000276757
1.9444e-05
0.000274979
1.86039e-05
0.000273194
1.77724e-05
0.000271415
1.69486e-05
0.000269652
1.61309e-05
0.000267918
1.53171e-05
0.000266222
1.4504e-05
0.000264578
1.3688e-05
0.000262997
1.28637e-05
0.000261497
1.20214e-05
0.000260081
1.11757e-05
1.01293e-05
0.000250407
2.09126e-06
0.000251652
6.3067e-06
0.000253656
1.03678e-05
0.000256261
1.40848e-05
0.000259286
1.73585e-05
0.000262568
2.01605e-05
0.000265964
2.24995e-05
0.000269353
2.44028e-05
0.000272636
2.59081e-05
0.000275737
2.70582e-05
0.0002786
2.7896e-05
0.000281185
2.84623e-05
0.000283466
2.87946e-05
0.000285431
2.89268e-05
0.000287078
2.8889e-05
0.000288411
2.87078e-05
0.000289441
2.84065e-05
0.000290184
2.80054e-05
0.000290657
2.75221e-05
0.00029088
2.69716e-05
0.000290875
2.63667e-05
0.000290664
2.57183e-05
0.000290266
2.50357e-05
0.000289704
2.43262e-05
0.000288997
2.35962e-05
0.000288164
2.28505e-05
0.000287222
2.20932e-05
0.000286188
2.13271e-05
0.000285077
2.05543e-05
0.000283905
1.9776e-05
0.000282685
1.89927e-05
0.000281429
1.82043e-05
0.000280151
1.74097e-05
0.000278861
1.6607e-05
0.000277571
1.57934e-05
0.000276294
1.49648e-05
0.000275042
1.41164e-05
0.000273829
1.32339e-05
0.000272659
1.23462e-05
1.12003e-05
0.000250311
1.78014e-06
0.000251257
5.36093e-06
0.000252791
8.83317e-06
0.000254815
1.2061e-05
0.00025721
1.49637e-05
0.000259863
1.75081e-05
0.000262671
1.96909e-05
0.000265548
2.15257e-05
0.00026842
2.30364e-05
0.000271226
2.42523e-05
0.000273917
2.52043e-05
0.000276457
2.59229e-05
0.000278815
2.6436e-05
0.000280973
2.67696e-05
0.000282915
2.69466e-05
0.000284635
2.69878e-05
0.00028613
2.69114e-05
0.000287402
2.67335e-05
0.000288456
2.64682e-05
0.0002893
2.61279e-05
0.000289943
2.57235e-05
0.000290397
2.52643e-05
0.000290674
2.47586e-05
0.000290787
2.42131e-05
0.000290749
2.36338e-05
0.000290574
2.30256e-05
0.000290275
2.23925e-05
0.000289864
2.17377e-05
0.000289355
2.10636e-05
0.000288759
2.03719e-05
0.000288088
1.96635e-05
0.000287354
1.89386e-05
0.000286567
1.81964e-05
0.000285739
1.74354e-05
0.000284879
1.66531e-05
0.000283999
1.58451e-05
0.000283108
1.50076e-05
0.000282219
1.41232e-05
0.000281332
1.32325e-05
1.20479e-05
0.000250244
1.53605e-06
0.000250983
4.62158e-06
0.000252189
7.62788e-06
0.000253795
1.04552e-05
0.00025572
1.30385e-05
0.000257883
1.5345e-05
0.000260209
1.73645e-05
0.000262634
1.91014e-05
0.0002651
2.05701e-05
0.000267562
2.17907e-05
0.00026998
2.2786e-05
0.000272324
2.35792e-05
0.000274567
2.41922e-05
0.000276691
2.46458e-05
0.000278679
2.49583e-05
0.000280521
2.51464e-05
0.000282207
2.52249e-05
0.000283734
2.52067e-05
0.000285099
2.51032e-05
0.000286302
2.49246e-05
0.000287346
2.46797e-05
0.000288234
2.43762e-05
0.000288972
2.40209e-05
0.000289565
2.36196e-05
0.000290022
2.31774e-05
0.000290349
2.26986e-05
0.000290554
2.21867e-05
0.000290647
2.16447e-05
0.000290636
2.10747e-05
0.00029053
2.04784e-05
0.000290336
1.98567e-05
0.000290065
1.92099e-05
0.000289724
1.85373e-05
0.000289322
1.78377e-05
0.000288866
1.71085e-05
0.000288366
1.63457e-05
0.000287827
1.55464e-05
0.000287258
1.46921e-05
0.000286661
1.383e-05
1.26617e-05
0.000250196
1.34035e-06
0.000250787
4.03026e-06
0.000251754
6.66074e-06
0.000253053
9.15681e-06
0.000254625
1.14663e-05
0.000256411
1.35591e-05
0.000258354
1.54214e-05
0.000260403
1.70519e-05
0.000262515
1.84581e-05
0.000264653
1.96531e-05
0.000266785
2.06535e-05
0.000268888
2.14769e-05
0.000270939
2.21411e-05
0.000272922
2.26627e-05
0.000274823
2.30572e-05
0.000276631
2.33385e-05
0.000278337
2.3519e-05
0.000279934
2.36095e-05
0.000281417
2.36197e-05
0.000282784
2.35581e-05
0.000284032
2.3432e-05
0.00028516
2.32478e-05
0.00028617
2.3011e-05
0.000287063
2.27266e-05
0.000287842
2.23986e-05
0.00028851
2.20306e-05
0.000289071
2.16256e-05
0.00028953
2.11859e-05
0.000289891
2.07134e-05
0.00029016
2.02095e-05
0.000290342
1.96747e-05
0.000290443
1.91093e-05
0.000290467
1.85127e-05
0.000290422
1.78835e-05
0.000290311
1.72196e-05
0.000290139
1.65173e-05
0.000289911
1.57745e-05
0.00028963
1.49733e-05
0.000289297
1.41629e-05
1.30543e-05
0.00025016
1.1806e-06
0.000250642
3.54837e-06
0.000251432
5.87058e-06
0.000252499
8.08972e-06
0.000253801
1.01639e-05
0.000255294
1.20663e-05
0.000256933
1.37822e-05
0.000258679
1.53065e-05
0.000260495
1.6642e-05
0.000262351
1.77966e-05
0.000264223
1.87819e-05
0.000266089
1.96111e-05
0.000267932
2.02981e-05
0.000269738
2.08567e-05
0.000271495
2.12998e-05
0.000273194
2.16392e-05
0.000274828
2.18857e-05
0.000276388
2.20488e-05
0.000277871
2.21369e-05
0.000279272
2.21573e-05
0.000280588
2.21164e-05
0.000281816
2.20197e-05
0.000282955
2.18719e-05
0.000284004
2.16773e-05
0.000284963
2.14391e-05
0.000285834
2.11604e-05
0.000286616
2.08436e-05
0.000287311
2.04905e-05
0.000287922
2.01026e-05
0.00028845
1.96809e-05
0.000288899
1.92259e-05
0.000289271
1.87375e-05
0.000289568
1.82152e-05
0.000289794
1.76577e-05
0.00028995
1.70631e-05
0.000290039
1.64283e-05
0.000290062
1.57519e-05
0.000290018
1.50179e-05
0.000289907
1.42735e-05
1.32539e-05
0.000250132
1.0482e-06
0.000250531
3.14942e-06
0.000251187
5.21506e-06
0.000252076
7.20025e-06
0.000253169
9.07113e-06
0.000254431
1.08044e-05
0.000255828
1.23855e-05
0.000257327
1.38076e-05
0.000258899
1.50701e-05
0.000260518
1.61771e-05
0.000262164
1.71363e-05
0.000263817
1.79573e-05
0.000265465
1.86509e-05
0.000267093
1.9228e-05
0.000268694
1.96994e-05
0.000270258
2.00753e-05
0.000271778
2.03649e-05
0.000273251
2.05767e-05
0.000274669
2.07182e-05
0.000276031
2.07959e-05
0.000277331
2.08156e-05
0.000278569
2.07822e-05
0.000279741
2.07e-05
0.000280845
2.05726e-05
0.000281882
2.0403e-05
0.000282848
2.01938e-05
0.000283745
1.99469e-05
0.000284572
1.96639e-05
0.000285328
1.93461e-05
0.000286015
1.89941e-05
0.000286633
1.86083e-05
0.000287182
1.81885e-05
0.000287663
1.77343e-05
0.000288076
1.72445e-05
0.000288421
1.67177e-05
0.000288698
1.61511e-05
0.000288906
1.55443e-05
0.00028904
1.48838e-05
0.000289101
1.42124e-05
1.32978e-05
0.000250111
9.36994e-07
0.000250446
2.81462e-06
0.000250997
4.66401e-06
0.000251748
6.44962e-06
0.000252675
8.14388e-06
0.000253753
9.72676e-06
0.000254953
1.11847e-05
0.000256251
1.251e-05
0.000257621
1.36999e-05
0.000259042
1.4756e-05
0.000260496
1.5683e-05
0.000261966
1.64875e-05
0.000263439
1.71775e-05
0.000264905
1.77618e-05
0.000266355
1.82492e-05
0.000267783
1.8648e-05
0.000269181
1.89665e-05
0.000270546
1.92119e-05
0.000271873
1.9391e-05
0.000273159
1.95097e-05
0.000274402
1.95733e-05
0.000275598
1.95863e-05
0.000276745
1.95527e-05
0.000277842
1.94757e-05
0.000278887
1.93582e-05
0.000279878
1.92025e-05
0.000280814
1.90103e-05
0.000281695
1.87831e-05
0.000282519
1.8522e-05
0.000283286
1.82276e-05
0.000283994
1.79001e-05
0.000284643
1.75396e-05
0.000285232
1.71455e-05
0.000285759
1.6717e-05
0.000286224
1.62531e-05
0.000286623
1.57518e-05
0.000286954
1.52131e-05
0.000287211
1.46267e-05
0.000287394
1.40297e-05
1.3225e-05
0.000250094
8.425e-07
0.000250379
2.53029e-06
0.000250847
4.19539e-06
0.000251488
5.80922e-06
0.000252283
7.34918e-06
0.000253211
8.79814e-06
0.000254252
1.01438e-05
0.000255384
1.13782e-05
0.000256586
1.24975e-05
0.000257841
1.35016e-05
0.000259131
1.43927e-05
0.000260443
1.51754e-05
0.000261765
1.58555e-05
0.000263088
1.64396e-05
0.000264402
1.69347e-05
0.000265702
1.73479e-05
0.000266983
1.7686e-05
0.000268239
1.79553e-05
0.000269468
1.81619e-05
0.000270667
1.83112e-05
0.000271832
1.84078e-05
0.000272963
1.8456e-05
0.000274056
1.84594e-05
0.00027511
1.84213e-05
0.000276124
1.83442e-05
0.000277096
1.82304e-05
0.000278025
1.80815e-05
0.000278909
1.78991e-05
0.000279747
1.7684e-05
0.000280538
1.74369e-05
0.00028128
1.71583e-05
0.000281971
1.68482e-05
0.00028261
1.65064e-05
0.000283195
1.61323e-05
0.000283722
1.57254e-05
0.00028419
1.52844e-05
0.000284593
1.48099e-05
0.000284925
1.42944e-05
0.000285186
1.37691e-05
1.30713e-05
0.000250081
7.6137e-07
0.000250325
2.2863e-06
0.000250728
3.79276e-06
0.000251279
5.25752e-06
0.000251967
6.6619e-06
0.000252774
7.99129e-06
0.000253683
9.23463e-06
0.000254677
1.03843e-05
0.000255738
1.14359e-05
0.000256852
1.23879e-05
0.000258003
1.32413e-05
0.00025918
1.39988e-05
0.000260371
1.46644e-05
0.000261567
1.52431e-05
0.000262762
1.57403e-05
0.000263948
1.61619e-05
0.00026512
1.65133e-05
0.000266276
1.68002e-05
0.00026741
1.70277e-05
0.00026852
1.72006e-05
0.000269605
1.73231e-05
0.000270662
1.73992e-05
0.000271689
1.74323e-05
0.000272685
1.74253e-05
0.000273648
1.73808e-05
0.000274578
1.73009e-05
0.000275472
1.71874e-05
0.000276329
1.70416e-05
0.000277149
1.68647e-05
0.000277928
1.66574e-05
0.000278666
1.64202e-05
0.000279361
1.61534e-05
0.000280011
1.58571e-05
0.000280612
1.5531e-05
0.000281162
1.51752e-05
0.000281657
1.4789e-05
0.000282094
1.43735e-05
0.000282465
1.39237e-05
0.000282768
1.34654e-05
1.28667e-05
0.00025007
6.91062e-07
0.000250282
2.07492e-06
0.000250631
3.4436e-06
0.00025111
4.77802e-06
0.00025171
6.06263e-06
0.000252416
7.28493e-06
0.000253215
8.43513e-06
0.000254094
9.50606e-06
0.000255036
1.04931e-05
0.00025603
1.13942e-05
0.000257063
1.2209e-05
0.000258122
1.2939e-05
0.0002592
1.35869e-05
0.000260286
1.41564e-05
0.000261375
1.46516e-05
0.00026246
1.5077e-05
0.000263536
1.54374e-05
0.000264599
1.57371e-05
0.000265646
1.59808e-05
0.000266674
1.61726e-05
0.000267681
1.63163e-05
0.000268664
1.64154e-05
0.000269624
1.64732e-05
0.000270557
1.64923e-05
0.000271462
1.64753e-05
0.000272339
1.64241e-05
0.000273186
1.63406e-05
0.000274001
1.62261e-05
0.000274784
1.60819e-05
0.000275533
1.59088e-05
0.000276245
1.57076e-05
0.00027692
1.54787e-05
0.000277554
1.52226e-05
0.000278146
1.49394e-05
0.000278692
1.46294e-05
0.000279188
1.42928e-05
0.000279631
1.39309e-05
0.000280013
1.35409e-05
0.000280335
1.31439e-05
1.2634e-05
0.000250061
6.29612e-07
0.000250246
1.89023e-06
0.000250551
3.13827e-06
0.000250972
4.3579e-06
0.000251498
5.5361e-06
0.000252121
6.66218e-06
0.000252829
7.7275e-06
0.000253609
8.72545e-06
0.000254451
9.6515e-06
0.000255342
1.05031e-05
0.000256272
1.12792e-05
0.00025723
1.19805e-05
0.000258208
1.26086e-05
0.000259199
1.3166e-05
0.000260195
1.36559e-05
0.00026119
1.40818e-05
0.00026218
1.44473e-05
0.00026316
1.47564e-05
0.000264129
1.50128e-05
0.000265081
1.522e-05
0.000266016
1.53814e-05
0.000266931
1.55002e-05
0.000267825
1.55792e-05
0.000268696
1.56211e-05
0.000269544
1.56281e-05
0.000270366
1.56022e-05
0.000271161
1.55451e-05
0.000271929
1.54584e-05
0.000272667
1.53432e-05
0.000273376
1.52007e-05
0.000274052
1.50316e-05
0.000274694
1.48368e-05
0.000275299
1.46168e-05
0.000275867
1.43722e-05
0.000276392
1.41038e-05
0.000276873
1.38122e-05
0.000277305
1.34989e-05
0.000277683
1.31628e-05
0.000278006
1.28211e-05
1.23895e-05
0.000250054
5.7548e-07
0.000250217
1.72758e-06
0.000250486
2.86916e-06
0.000250857
3.98702e-06
0.000251323
5.07019e-06
0.000251875
6.10949e-06
0.000252506
7.09734e-06
0.000253203
8.02772e-06
0.000253958
8.89628e-06
0.000254761
9.70025e-06
0.000255602
1.04383e-05
0.000256472
1.11103e-05
0.000257364
1.1717e-05
0.00025827
1.22603e-05
0.000259183
1.27424e-05
0.000260099
1.31659e-05
0.000261013
1.35339e-05
0.00026192
1.38494e-05
0.000262817
1.41155e-05
0.000263701
1.43354e-05
0.000264571
1.45118e-05
0.000265423
1.46477e-05
0.000266257
1.47455e-05
0.000267071
1.48077e-05
0.000267862
1.48363e-05
0.000268631
1.48332e-05
0.000269376
1.48003e-05
0.000270096
1.47388e-05
0.000270789
1.46503e-05
0.000271454
1.45357e-05
0.000272089
1.43961e-05
0.000272693
1.42325e-05
0.000273264
1.40457e-05
0.0002738
1.38367e-05
0.000274297
1.36063e-05
0.000274754
1.33557e-05
0.000275166
1.30866e-05
0.00027553
1.2799e-05
0.000275844
1.25071e-05
1.21438e-05
0.000250048
5.27442e-07
0.000250192
1.58326e-06
0.000250431
2.63024e-06
0.000250761
3.6573e-06
0.000251176
4.65513e-06
0.00025167
5.61587e-06
0.000252234
6.53286e-06
0.000252861
7.40068e-06
0.000253542
8.21524e-06
0.000254269
8.97373e-06
0.000255032
9.67454e-06
0.000255826
1.03171e-05
0.000256641
1.09017e-05
0.000257472
1.14293e-05
0.000258313
1.19017e-05
0.000259158
1.23208e-05
0.000260003
1.26888e-05
0.000260844
1.30083e-05
0.000261678
1.32819e-05
0.000262501
1.35121e-05
0.000263312
1.37013e-05
0.000264107
1.38521e-05
0.000264886
1.39667e-05
0.000265646
1.40472e-05
0.000266387
1.40956e-05
0.000267107
1.41137e-05
0.000267804
1.4103e-05
0.000268477
1.40652e-05
0.000269126
1.40014e-05
0.000269749
1.3913e-05
0.000270344
1.3801e-05
0.00027091
1.36666e-05
0.000271445
1.35108e-05
0.000271947
1.33347e-05
0.000272414
1.31395e-05
0.000272843
1.29266e-05
0.000273232
1.26979e-05
0.000273576
1.24542e-05
0.000273877
1.22069e-05
1.19032e-05
0.000250043
4.84509e-07
0.000250172
1.4543e-06
0.000250385
2.41664e-06
0.000250681
3.36216e-06
0.000251053
4.28297e-06
0.000251496
5.1723e-06
0.000252005
6.02432e-06
0.000252571
6.83418e-06
0.000253189
7.59808e-06
0.000253849
8.31329e-06
0.000254546
8.97804e-06
0.000255271
9.59145e-06
0.000256019
1.01534e-05
0.000256784
1.06645e-05
0.00025756
1.11258e-05
0.000258342
1.15386e-05
0.000259126
1.19049e-05
0.000259908
1.22264e-05
0.000260685
1.25054e-05
0.000261453
1.2744e-05
0.00026221
1.29441e-05
0.000262954
1.31081e-05
0.000263683
1.32377e-05
0.000264395
1.33349e-05
0.000265089
1.34016e-05
0.000265764
1.34393e-05
0.000266417
1.34496e-05
0.000267048
1.34339e-05
0.000267656
1.33936e-05
0.000268239
1.33299e-05
0.000268796
1.3244e-05
0.000269326
1.31372e-05
0.000269826
1.30105e-05
0.000270296
1.28653e-05
0.000270732
1.27029e-05
0.000271134
1.2525e-05
0.000271498
1.23334e-05
0.000271823
1.21294e-05
0.000272107
1.19224e-05
1.16709e-05
0.000250039
4.45877e-07
0.000250155
1.33827e-06
0.000250347
2.22436e-06
0.000250613
3.09622e-06
0.000250949
3.94714e-06
0.00025135
4.77128e-06
0.00025181
5.56355e-06
0.000252325
6.31963e-06
0.000252887
7.03605e-06
0.00025349
7.71018e-06
0.000254128
8.34021e-06
0.000254794
8.92507e-06
0.000255483
9.46438e-06
0.00025619
9.95828e-06
0.000256908
1.04074e-05
0.000257634
1.08128e-05
0.000258363
1.11758e-05
0.000259092
1.14978e-05
0.000259816
1.17805e-05
0.000260535
1.20258e-05
0.000261244
1.22352e-05
0.000261941
1.24106e-05
0.000262625
1.25538e-05
0.000263293
1.26664e-05
0.000263945
1.27499e-05
0.000264578
1.28059e-05
0.000265192
1.28359e-05
0.000265785
1.28412e-05
0.000266355
1.28232e-05
0.000266902
1.2783e-05
0.000267424
1.27219e-05
0.00026792
1.26412e-05
0.000268388
1.25422e-05
0.000268827
1.24261e-05
0.000269236
1.22945e-05
0.000269612
1.21491e-05
0.000269953
1.19917e-05
0.000270259
1.1824e-05
0.000270528
1.16536e-05
1.14482e-05
0.000250035
4.10875e-07
0.00025014
1.23316e-06
0.000250314
2.05011e-06
0.000250556
2.85502e-06
0.000250861
3.64216e-06
0.000251225
4.40652e-06
0.000251645
5.14367e-06
0.000252115
5.84976e-06
0.000252629
6.52165e-06
0.000253183
7.15686e-06
0.000253769
7.7536e-06
0.000254384
8.31069e-06
0.000255021
8.82752e-06
0.000255675
9.30399e-06
0.000256342
9.74039e-06
0.000257017
1.01374e-05
0.000257697
1.04959e-05
0.000258378
1.08171e-05
0.000259056
1.11022e-05
0.000259729
1.13527e-05
0.000260395
1.157e-05
0.00026105
1.17556e-05
0.000261693
1.19109e-05
0.000262321
1.20375e-05
0.000262935
1.21367e-05
0.000263531
1.22099e-05
0.000264108
1.22585e-05
0.000264666
1.22837e-05
0.000265202
1.22867e-05
0.000265716
1.22689e-05
0.000266207
1.22315e-05
0.000266672
1.21757e-05
0.000267112
1.21028e-05
0.000267523
1.20143e-05
0.000267906
1.19116e-05
0.000268259
1.17965e-05
0.00026858
1.16709e-05
0.000268867
1.15364e-05
0.000269122
1.13993e-05
1.1235e-05
0.000250032
3.78944e-07
0.000250128
1.13728e-06
0.000250287
1.89111e-06
0.000250507
2.63477e-06
0.000250786
3.36339e-06
0.00025112
4.07268e-06
0.000251505
4.75877e-06
0.000251936
5.41829e-06
0.000252409
6.04838e-06
0.000252919
6.64675e-06
0.000253461
7.21167e-06
0.00025403
7.74189e-06
0.000254621
8.23667e-06
0.000255229
8.69569e-06
0.000255851
9.119e-06
0.000256481
9.50695e-06
0.000257117
9.86018e-06
0.000257754
1.01795e-05
0.000258391
1.04659e-05
0.000259023
1.07205e-05
0.000259648
1.09444e-05
0.000260265
1.1139e-05
0.000260871
1.13053e-05
0.000261463
1.14447e-05
0.000262042
1.15585e-05
0.000262604
1.16478e-05
0.000263148
1.17138e-05
0.000263674
1.17578e-05
0.00026418
1.1781e-05
0.000264664
1.17845e-05
0.000265126
1.17695e-05
0.000265565
1.17374e-05
0.000265978
1.16893e-05
0.000266366
1.16268e-05
0.000266726
1.15514e-05
0.000267058
1.14646e-05
0.00026736
1.13685e-05
0.000267632
1.12646e-05
0.000267873
1.11581e-05
1.10308e-05
0.000250029
3.49606e-07
0.000250117
1.04919e-06
0.000250264
1.745e-06
0.000250466
2.43226e-06
0.000250723
3.10687e-06
0.00025103
3.76515e-06
0.000251385
4.40378e-06
0.000251784
5.01977e-06
0.000252221
5.61058e-06
0.000252694
6.17409e-06
0.000253197
6.70864e-06
0.000253726
7.21298e-06
0.000254276
7.68628e-06
0.000254844
8.12805e-06
0.000255425
8.53813e-06
0.000256015
8.91667e-06
0.000256611
9.26402e-06
0.00025721
9.58074e-06
0.000257809
9.86754e-06
0.000258404
1.01253e-05
0.000258993
1.03549e-05
0.000259575
1.05573e-05
0.000260147
1.07336e-05
0.000260707
1.08849e-05
0.000261253
1.10121e-05
0.000261784
1.11165e-05
0.000262299
1.1199e-05
0.000262796
1.12608e-05
0.000263274
1.1303e-05
0.000263732
1.13268e-05
0.000264168
1.13332e-05
0.000264582
1.13235e-05
0.000264972
1.1299e-05
0.000265338
1.12611e-05
0.000265678
1.12112e-05
0.000265992
1.1151e-05
0.000266278
1.10823e-05
0.000266536
1.10067e-05
0.000266765
1.09283e-05
1.08347e-05
0.000250027
3.22444e-07
0.000250109
9.67648e-07
0.000250244
1.60971e-06
0.000250432
2.24469e-06
0.000250669
2.86913e-06
0.000250955
3.47992e-06
0.000251284
4.07421e-06
0.000251654
4.6494e-06
0.000252062
5.20322e-06
0.000252502
5.73372e-06
0.000252971
6.23934e-06
0.000253466
6.71885e-06
0.000253981
7.17133e-06
0.000254512
7.5962e-06
0.000255057
7.99314e-06
0.000255612
8.36208e-06
0.000256173
8.70319e-06
0.000256737
9.01678e-06
0.000257301
9.30334e-06
0.000257863
9.56349e-06
0.00025842
9.79792e-06
0.00025897
1.00074e-05
0.00025951
1.01928e-05
0.00026004
1.0355e-05
0.000260558
1.04948e-05
0.000261061
1.06133e-05
0.000261548
1.07114e-05
0.000262019
1.07901e-05
0.000262472
1.08504e-05
0.000262905
1.08933e-05
0.000263318
1.092e-05
0.00026371
1.09317e-05
0.00026408
1.09295e-05
0.000264426
1.09147e-05
0.000264748
1.08889e-05
0.000265046
1.08536e-05
0.000265318
1.08104e-05
0.000265564
1.0761e-05
0.000265783
1.07087e-05
1.06458e-05
0.000250025
2.97092e-07
0.000250101
8.91535e-07
0.000250228
1.48343e-06
0.000250403
2.06956e-06
0.000250625
2.64709e-06
0.000250891
3.21342e-06
0.0002512
3.76611e-06
0.000251546
4.30291e-06
0.000251927
4.82181e-06
0.00025234
5.32104e-06
0.00025278
5.79912e-06
0.000253244
6.25485e-06
0.000253728
6.68728e-06
0.000254229
7.09572e-06
0.000254742
7.47974e-06
0.000255265
7.83912e-06
0.000255795
8.17381e-06
0.000256327
8.48395e-06
0.000256861
8.76982e-06
0.000257393
9.03183e-06
0.00025792
9.27047e-06
0.000258441
9.48634e-06
0.000258954
9.68009e-06
0.000259456
9.85242e-06
0.000259947
1.00041e-05
0.000260425
1.01359e-05
0.000260887
1.02487e-05
0.000261334
1.03434e-05
0.000261764
1.04208e-05
0.000262175
1.0482e-05
0.000262567
1.05279e-05
0.000262939
1.05597e-05
0.00026329
1.05786e-05
0.000263619
1.05857e-05
0.000263925
1.05825e-05
0.000264208
1.05705e-05
0.000264468
1.05511e-05
0.000264703
1.05261e-05
0.000264913
1.04978e-05
1.04632e-05
0.000250024
2.73215e-07
0.000250096
8.19852e-07
0.000250214
1.36451e-06
0.000250379
1.90464e-06
0.000250589
2.43798e-06
0.00025084
2.9624e-06
0.00025113
3.47585e-06
0.000251456
3.9764e-06
0.000251816
4.46226e-06
0.000252205
4.93183e-06
0.00025262
5.38372e-06
0.000253059
5.81674e-06
0.000253516
6.22994e-06
0.000253989
6.62255e-06
0.000254475
6.99402e-06
0.00025497
7.344e-06
0.000255471
7.67228e-06
0.000255977
7.97884e-06
0.000256483
8.26376e-06
0.000256987
8.52727e-06
0.000257488
8.76968e-06
0.000257983
8.99141e-06
0.00025847
9.19293e-06
0.000258948
9.37479e-06
0.000259414
9.5376e-06
0.000259868
9.68202e-06
0.000260308
9.80877e-06
0.000260733
9.91859e-06
0.000261141
1.00123e-05
0.000261532
1.00908e-05
0.000261905
1.0155e-05
0.000262259
1.0206e-05
0.000262593
1.02447e-05
0.000262906
1.02725e-05
0.000263198
1.02905e-05
0.000263468
1.03002e-05
0.000263716
1.03031e-05
0.000263942
1.03007e-05
0.000264145
1.02948e-05
1.02861e-05
0.000250023
2.50498e-07
0.000250091
7.51654e-07
0.000250204
1.25138e-06
0.000250361
1.7478e-06
0.00025056
2.2392e-06
0.000250798
2.72387e-06
0.000251074
3.20012e-06
0.000251384
3.66629e-06
0.000251725
4.12081e-06
0.000252095
4.56223e-06
0.00025249
4.98922e-06
0.000252906
5.40062e-06
0.00025334
5.79547e-06
0.00025379
6.17292e-06
0.000254252
6.53235e-06
0.000254722
6.87325e-06
0.000255199
7.1953e-06
0.00025568
7.4983e-06
0.000256161
7.78219e-06
0.000256642
8.04701e-06
0.000257118
8.29292e-06
0.00025759
8.52015e-06
0.000258054
8.72902e-06
0.000258508
8.91993e-06
0.000258953
9.09333e-06
0.000259385
9.24976e-06
0.000259804
9.3898e-06
0.000260208
9.51408e-06
0.000260597
9.62333e-06
0.00026097
9.71831e-06
0.000261325
9.79987e-06
0.000261662
9.86893e-06
0.00026198
9.9265e-06
0.000262279
9.97366e-06
0.000262558
1.00116e-05
0.000262817
1.00417e-05
0.000263054
1.00652e-05
0.000263271
1.00838e-05
0.000263467
1.00986e-05
1.0114e-05