/*--------------------------------*- C++ -*----------------------------------*\
| =========                 |                                                 |
| \\      /  F ield         | OpenFOAM: The Open Source CFD Toolbox           |
|  \\    /   O peration     | Version:  v1906                                 |
|   \\  /    A nd           | Web:      www.OpenFOAM.com                      |
|    \\/     M anipulation  |                                                 |
\*---------------------------------------------------------------------------*/
FoamFile
{
    version     2.0;
    format      ascii;
    class       volVectorField;
    location    "0.65";
    object      U;
}
// * * * * * * * * * * * * * * * * * * * * * * * * * * * * * * * * * * * * * //

dimensions      [0 1 -1 0 0 0 0];


internalField   nonuniform List<vector> 
1600
(
(8.101 0.891242 0)
(7.08777 1.1084 0)
(5.651 0.82066 0)
(4.37142 0.527764 0)
(3.51652 0.32301 0)
(2.96031 0.196869 0)
(2.5767 0.124439 0)
(2.29941 0.0837187 0)
(2.09095 0.0603087 0)
(1.92787 0.0461396 0)
(1.79575 0.0369642 0)
(1.68582 0.030595 0)
(1.59253 0.0259052 0)
(1.51214 0.0222955 0)
(1.44202 0.0194276 0)
(1.38025 0.0170954 0)
(1.32539 0.0151652 0)
(1.27633 0.0135448 0)
(1.23218 0.0121682 0)
(1.19225 0.0109863 0)
(1.15598 0.0099619 0)
(1.12289 0.00906628 0)
(1.09262 0.00827689 0)
(1.06484 0.00757583 0)
(1.03929 0.00694873 0)
(1.01574 0.00638395 0)
(0.994003 0.00587201 0)
(0.973915 0.00540518 0)
(0.955336 0.0049772 0)
(0.938147 0.00458316 0)
(0.92224 0.00421951 0)
(0.90752 0.00388442 0)
(0.893896 0.00357867 0)
(0.881279 0.00330797 0)
(0.869558 0.00308895 0)
(0.85858 0.0029625 0)
(0.848147 0.00301479 0)
(0.837792 0.00343063 0)
(0.82521 0.00468112 0)
(0.808699 0.00706041 0)
(10.0486 1.539 0)
(10.4597 2.2675 0)
(10.0952 2.02588 0)
(9.26488 1.58294 0)
(8.3787 1.17247 0)
(7.58215 0.852447 0)
(6.89811 0.62482 0)
(6.32309 0.469683 0)
(5.84423 0.364422 0)
(5.44432 0.291619 0)
(5.10701 0.239681 0)
(4.81911 0.201326 0)
(4.57055 0.172063 0)
(4.35368 0.1491 0)
(4.1627 0.130656 0)
(3.99316 0.115555 0)
(3.84157 0.102994 0)
(3.70521 0.0924039 0)
(3.58189 0.0833715 0)
(3.46984 0.0755883 0)
(3.36761 0.0688198 0)
(3.27402 0.0628841 0)
(3.18806 0.0576384 0)
(3.10891 0.0529688 0)
(3.03585 0.0487838 0)
(2.9683 0.0450088 0)
(2.90573 0.0415828 0)
(2.84773 0.0384558 0)
(2.7939 0.0355869 0)
(2.74391 0.0329433 0)
(2.69749 0.0305001 0)
(2.65437 0.0282414 0)
(2.61431 0.0261631 0)
(2.57708 0.0242805 0)
(2.54242 0.022644 0)
(2.51003 0.0213752 0)
(2.47957 0.0207185 0)
(2.45062 0.0211108 0)
(2.4204 0.0235018 0)
(2.38498 0.0288847 0)
(10.1375 1.01381 0)
(10.7552 1.98137 0)
(11.0903 2.18428 0)
(11.0307 2.05757 0)
(10.7077 1.80771 0)
(10.2497 1.52857 0)
(9.73668 1.2695 0)
(9.21954 1.05049 0)
(8.72803 0.873615 0)
(8.27564 0.733419 0)
(7.8658 0.622691 0)
(7.49703 0.534771 0)
(7.16578 0.464237 0)
(6.86792 0.406939 0)
(6.59938 0.359786 0)
(6.35646 0.320496 0)
(6.13594 0.287375 0)
(5.93504 0.259157 0)
(5.75141 0.234882 0)
(5.58301 0.213816 0)
(5.42815 0.195384 0)
(5.28536 0.179136 0)
(5.15339 0.164712 0)
(5.03117 0.151822 0)
(4.91778 0.140232 0)
(4.81241 0.129746 0)
(4.71439 0.120207 0)
(4.6231 0.111481 0)
(4.53804 0.10346 0)
(4.45873 0.0960536 0)
(4.38479 0.0891929 0)
(4.31584 0.0828282 0)
(4.25157 0.0769355 0)
(4.19166 0.0715265 0)
(4.13582 0.0666703 0)
(4.08374 0.0625369 0)
(4.03511 0.059464 0)
(3.98991 0.0579709 0)
(3.94624 0.0588036 0)
(3.89597 0.0636378 0)
(10.068 0.568826 0)
(10.5037 1.40451 0)
(10.9793 1.83685 0)
(11.2902 1.98414 0)
(11.3911 1.95721 0)
(11.3186 1.83135 0)
(11.1218 1.66062 0)
(10.8447 1.48001 0)
(10.523 1.30822 0)
(10.1825 1.15337 0)
(9.8402 1.01779 0)
(9.50662 0.900904 0)
(9.18763 0.800819 0)
(8.88618 0.715234 0)
(8.60331 0.6419 0)
(8.33899 0.578807 0)
(8.09254 0.524245 0)
(7.86296 0.476786 0)
(7.64912 0.435261 0)
(7.44986 0.39871 0)
(7.26406 0.366346 0)
(7.09067 0.337525 0)
(6.92871 0.311716 0)
(6.7773 0.288478 0)
(6.63562 0.267443 0)
(6.50297 0.248305 0)
(6.37868 0.230804 0)
(6.26219 0.214723 0)
(6.15298 0.199878 0)
(6.05058 0.186118 0)
(5.95459 0.173318 0)
(5.86465 0.161385 0)
(5.78043 0.15026 0)
(5.70163 0.139931 0)
(5.628 0.130447 0)
(5.5593 0.121961 0)
(5.49536 0.11478 0)
(5.43637 0.109388 0)
(5.38202 0.106081 0)
(5.31871 0.107104 0)
(10.0307 0.34863 0)
(10.2888 0.977786 0)
(10.6757 1.42422 0)
(11.0501 1.6844 0)
(11.3258 1.799 0)
(11.4834 1.8096 0)
(11.5317 1.75238 0)
(11.4881 1.65617 0)
(11.3731 1.54126 0)
(11.2066 1.4207 0)
(11.0053 1.30232 0)
(10.7825 1.1905 0)
(10.5484 1.08734 0)
(10.3102 0.993523 0)
(10.0731 0.908916 0)
(9.84051 0.832957 0)
(9.61482 0.764886 0)
(9.3974 0.703879 0)
(9.18904 0.649131 0)
(8.99009 0.599893 0)
(8.80065 0.555486 0)
(8.62058 0.515307 0)
(8.44966 0.478828 0)
(8.28758 0.445585 0)
(8.134 0.415175 0)
(7.98854 0.387246 0)
(7.85086 0.361495 0)
(7.72059 0.337656 0)
(7.5974 0.315499 0)
(7.48099 0.294829 0)
(7.37106 0.275481 0)
(7.26736 0.257322 0)
(7.16965 0.240255 0)
(7.07774 0.224229 0)
(6.99148 0.209248 0)
(6.91076 0.1954 0)
(6.83559 0.182876 0)
(6.76612 0.172061 0)
(6.70397 0.162794 0)
(6.62972 0.157323 0)
(10.0157 0.238712 0)
(10.1659 0.704011 0)
(10.434 1.08699 0)
(10.7488 1.361 0)
(11.0423 1.53494 0)
(11.2811 1.6267 0)
(11.4532 1.6549 0)
(11.557 1.63714 0)
(11.5972 1.58841 0)
(11.5823 1.52033 0)
(11.5222 1.44142 0)
(11.4263 1.35772 0)
(11.3034 1.27331 0)
(11.1607 1.19083 0)
(11.0042 1.11189 0)
(10.839 1.03738 0)
(10.6687 0.967683 0)
(10.4965 0.902883 0)
(10.3245 0.842856 0)
(10.1544 0.787362 0)
(9.98758 0.736094 0)
(9.82479 0.688722 0)
(9.66672 0.644905 0)
(9.51378 0.604316 0)
(9.36624 0.56664 0)
(9.22428 0.531587 0)
(9.08795 0.498886 0)
(8.95728 0.468293 0)
(8.83226 0.439583 0)
(8.71283 0.412558 0)
(8.59892 0.387041 0)
(8.49049 0.362884 0)
(8.38748 0.339964 0)
(8.28985 0.318193 0)
(8.19762 0.297522 0)
(8.11082 0.277963 0)
(8.02971 0.259557 0)
(7.95415 0.242566 0)
(7.88788 0.226519 0)
(7.80593 0.212685 0)
(10.0094 0.176236 0)
(10.1013 0.528082 0)
(10.2804 0.84048 0)
(10.5159 1.08996 0)
(10.7653 1.27454 0)
(11.0007 1.40056 0)
(11.2062 1.47644 0)
(11.3728 1.51143 0)
(11.4967 1.51469 0)
(11.5782 1.49432 0)
(11.6201 1.45709 0)
(11.6266 1.40838 0)
(11.6026 1.35239 0)
(11.5529 1.29228 0)
(11.4822 1.23038 0)
(11.3947 1.16836 0)
(11.294 1.10736 0)
(11.1834 1.04817 0)
(11.0656 0.991262 0)
(10.9428 0.936917 0)
(10.8168 0.885254 0)
(10.6893 0.83629 0)
(10.5614 0.789968 0)
(10.4342 0.746182 0)
(10.3084 0.704795 0)
(10.1847 0.665654 0)
(10.0635 0.628595 0)
(9.94533 0.593452 0)
(9.83045 0.560061 0)
(9.71912 0.528264 0)
(9.61155 0.497912 0)
(9.50792 0.468866 0)
(9.40838 0.441001 0)
(9.31309 0.414209 0)
(9.22226 0.388399 0)
(9.13606 0.363513 0)
(9.055 0.339462 0)
(8.97855 0.316354 0)
(8.91242 0.293681 0)
(8.82722 0.270678 0)
(10.0063 0.137039 0)
(10.0666 0.412015 0)
(10.1886 0.666103 0)
(10.3594 0.882325 0)
(10.5546 1.05597 0)
(10.7549 1.18871 0)
(10.9476 1.28428 0)
(11.1234 1.34737 0)
(11.276 1.38313 0)
(11.4021 1.39664 0)
(11.5003 1.39247 0)
(11.571 1.37461 0)
(11.6158 1.34644 0)
(11.6368 1.31074 0)
(11.6363 1.26977 0)
(11.617 1.22531 0)
(11.5816 1.17877 0)
(11.5323 1.13122 0)
(11.4716 1.08347 0)
(11.4014 1.03612 0)
(11.3237 0.989596 0)
(11.2399 0.9442 0)
(11.1516 0.900119 0)
(11.06 0.857463 0)
(10.966 0.816283 0)
(10.8708 0.77658 0)
(10.7749 0.738324 0)
(10.6791 0.701456 0)
(10.584 0.665901 0)
(10.49 0.631571 0)
(10.3975 0.598366 0)
(10.3071 0.566186 0)
(10.219 0.534922 0)
(10.1335 0.504467 0)
(10.051 0.474704 0)
(9.97179 0.445524 0)
(9.89667 0.416753 0)
(9.82464 0.38831 0)
(9.76295 0.359961 0)
(9.67959 0.328154 0)
(10.0045 0.110539 0)
(10.0467 0.332228 0)
(10.133 0.541555 0)
(10.2581 0.726708 0)
(10.4074 0.882886 0)
(10.5686 1.00992 0)
(10.7329 1.10948 0)
(10.8929 1.18407 0)
(11.043 1.23664 0)
(11.1792 1.27031 0)
(11.2986 1.28804 0)
(11.4 1.29257 0)
(11.4827 1.28634 0)
(11.5471 1.27145 0)
(11.5937 1.24975 0)
(11.6237 1.22277 0)
(11.6384 1.19181 0)
(11.6392 1.15793 0)
(11.6275 1.12201 0)
(11.6047 1.08475 0)
(11.5724 1.0467 0)
(11.5317 1.0083 0)
(11.484 0.969901 0)
(11.4303 0.931744 0)
(11.3718 0.894015 0)
(11.3092 0.856841 0)
(11.2435 0.820302 0)
(11.1755 0.784438 0)
(11.1057 0.74926 0)
(11.0349 0.714751 0)
(10.9635 0.68087 0)
(10.8921 0.64756 0)
(10.8212 0.614743 0)
(10.7511 0.582322 0)
(10.6824 0.550176 0)
(10.6154 0.518162 0)
(10.5511 0.486068 0)
(10.4881 0.453608 0)
(10.4345 0.421058 0)
(10.3579 0.381868 0)
(10.0034 0.0915147 0)
(10.0344 0.274797 0)
(10.0979 0.450073 0)
(10.1916 0.609078 0)
(10.3065 0.747617 0)
(10.4346 0.864753 0)
(10.5696 0.961119 0)
(10.7066 1.03811 0)
(10.841 1.09756 0)
(10.9695 1.14146 0)
(11.0893 1.17181 0)
(11.1986 1.1905 0)
(11.2962 1.19924 0)
(11.3812 1.19958 0)
(11.4534 1.19289 0)
(11.5129 1.18039 0)
(11.5601 1.1631 0)
(11.5954 1.14195 0)
(11.6195 1.11771 0)
(11.6332 1.09102 0)
(11.6373 1.06245 0)
(11.6328 1.03246 0)
(11.6204 1.00141 0)
(11.601 0.969628 0)
(11.5754 0.937352 0)
(11.5444 0.904777 0)
(11.5087 0.872048 0)
(11.469 0.83927 0)
(11.426 0.806512 0)
(11.3802 0.773811 0)
(11.3322 0.741175 0)
(11.2826 0.708582 0)
(11.2318 0.675985 0)
(11.1803 0.643302 0)
(11.1286 0.610417 0)
(11.0771 0.577168 0)
(11.0267 0.54335 0)
(10.976 0.508476 0)
(10.933 0.473425 0)
(10.8671 0.429009 0)
(10.0026 0.0772438 0)
(10.0262 0.231789 0)
(10.0747 0.380821 0)
(10.1467 0.518441 0)
(10.2366 0.641166 0)
(10.3388 0.747748 0)
(10.4491 0.838229 0)
(10.5637 0.913356 0)
(10.6795 0.974298 0)
(10.7937 1.02243 0)
(10.9041 1.05917 0)
(11.0091 1.08588 0)
(11.1074 1.10382 0)
(11.1979 1.11416 0)
(11.28 1.11791 0)
(11.3533 1.11601 0)
(11.4176 1.10927 0)
(11.4729 1.0984 0)
(11.5193 1.08404 0)
(11.5572 1.06673 0)
(11.5868 1.04695 0)
(11.6087 1.02512 0)
(11.6232 1.00157 0)
(11.6308 0.976622 0)
(11.6322 0.950512 0)
(11.6278 0.923452 0)
(11.6182 0.895606 0)
(11.6039 0.867105 0)
(11.5853 0.838046 0)
(11.5631 0.808492 0)
(11.5377 0.778478 0)
(11.5094 0.748006 0)
(11.4789 0.717047 0)
(11.4465 0.685533 0)
(11.4127 0.653357 0)
(11.3777 0.62035 0)
(11.3425 0.586337 0)
(11.3055 0.550674 0)
(11.2743 0.514783 0)
(11.2215 0.467617 0)
(10.0021 0.0661967 0)
(10.0206 0.198565 0)
(10.0585 0.326975 0)
(10.1153 0.447119 0)
(10.1869 0.556165 0)
(10.2696 0.652799 0)
(10.3602 0.736712 0)
(10.4559 0.808225 0)
(10.5543 0.868065 0)
(10.6533 0.917188 0)
(10.7513 0.956638 0)
(10.8469 0.987453 0)
(10.9389 1.01061 0)
(11.0265 1.02702 0)
(11.1088 1.03749 0)
(11.1855 1.04275 0)
(11.2562 1.04344 0)
(11.3205 1.04012 0)
(11.3783 1.03331 0)
(11.4297 1.02344 0)
(11.4746 1.0109 0)
(11.5132 0.996043 0)
(11.5456 0.979153 0)
(11.5722 0.960491 0)
(11.5931 0.940279 0)
(11.6087 0.918703 0)
(11.6192 0.89592 0)
(11.6251 0.872054 0)
(11.6267 0.847203 0)
(11.6242 0.821436 0)
(11.6182 0.794793 0)
(11.6088 0.767284 0)
(11.5965 0.738889 0)
(11.5815 0.709549 0)
(11.5643 0.679167 0)
(11.545 0.647572 0)
(11.5244 0.614631 0)
(11.5011 0.579613 0)
(11.4814 0.544313 0)
(11.4425 0.496786 0)
(10.0017 0.0574364 0)
(10.0165 0.172254 0)
(10.0468 0.284142 0)
(10.0925 0.389884 0)
(10.1507 0.487198 0)
(10.2185 0.57483 0)
(10.2937 0.652284 0)
(10.374 0.719596 0)
(10.4577 0.777174 0)
(10.5431 0.825665 0)
(10.6288 0.865835 0)
(10.7138 0.898485 0)
(10.7971 0.924397 0)
(10.8779 0.944305 0)
(10.9558 0.958877 0)
(11.0301 0.968711 0)
(11.1004 0.974341 0)
(11.1665 0.976237 0)
(11.2282 0.97481 0)
(11.2852 0.970424 0)
(11.3375 0.963398 0)
(11.385 0.954008 0)
(11.4278 0.9425 0)
(11.4658 0.929083 0)
(11.4992 0.913942 0)
(11.5281 0.897232 0)
(11.5527 0.879083 0)
(11.573 0.859602 0)
(11.5894 0.838873 0)
(11.6019 0.816955 0)
(11.6109 0.793881 0)
(11.6165 0.769661 0)
(11.6189 0.744273 0)
(11.6185 0.717663 0)
(11.6153 0.689742 0)
(11.6095 0.660349 0)
(11.6017 0.629391 0)
(11.5906 0.596123 0)
(11.5812 0.562511 0)
(11.5555 0.516628 0)
(10.0014 0.0503511 0)
(10.0135 0.150991 0)
(10.0382 0.24941 0)
(10.0756 0.343158 0)
(10.1235 0.430395 0)
(10.1799 0.509992 0)
(10.243 0.581373 0)
(10.3111 0.644393 0)
(10.3827 0.699231 0)
(10.4565 0.746298 0)
(10.5313 0.786139 0)
(10.6063 0.819365 0)
(10.6807 0.846597 0)
(10.7538 0.868439 0)
(10.8252 0.885451 0)
(10.8944 0.898144 0)
(10.9611 0.906976 0)
(11.0251 0.91235 0)
(11.086 0.914623 0)
(11.1437 0.914104 0)
(11.1981 0.911063 0)
(11.249 0.905736 0)
(11.2963 0.898325 0)
(11.3401 0.889005 0)
(11.3803 0.877926 0)
(11.4168 0.865216 0)
(11.4499 0.85098 0)
(11.4794 0.835303 0)
(11.5055 0.818251 0)
(11.5283 0.799868 0)
(11.5478 0.780178 0)
(11.5642 0.759183 0)
(11.5775 0.73686 0)
(11.5879 0.713156 0)
(11.5956 0.687995 0)
(11.6004 0.66123 0)
(11.6028 0.632801 0)
(11.6017 0.602016 0)
(11.6007 0.570831 0)
(11.5864 0.528054 0)
(10.0011 0.0445244 0)
(10.0112 0.133513 0)
(10.0317 0.220785 0)
(10.0627 0.304437 0)
(10.1028 0.382985 0)
(10.1503 0.455438 0)
(10.2038 0.521209 0)
(10.262 0.580047 0)
(10.3237 0.63198 0)
(10.3878 0.677237 0)
(10.4534 0.716191 0)
(10.5195 0.749291 0)
(10.5857 0.777024 0)
(10.6514 0.799878 0)
(10.716 0.818325 0)
(10.7794 0.832801 0)
(10.8412 0.843707 0)
(10.9011 0.851397 0)
(10.959 0.856189 0)
(11.0146 0.858357 0)
(11.0679 0.858142 0)
(11.1187 0.855751 0)
(11.1669 0.85136 0)
(11.2124 0.845122 0)
(11.2552 0.837164 0)
(11.2953 0.827592 0)
(11.3326 0.816494 0)
(11.367 0.803938 0)
(11.3987 0.789974 0)
(11.4276 0.774636 0)
(11.4536 0.757938 0)
(11.477 0.739878 0)
(11.4976 0.720431 0)
(11.5154 0.699549 0)
(11.5306 0.677167 0)
(11.543 0.653162 0)
(11.5529 0.627502 0)
(11.5592 0.599592 0)
(11.5646 0.571245 0)
(11.5594 0.532465 0)
(10.001 0.0396639 0)
(10.0094 0.118937 0)
(10.0266 0.196859 0)
(10.0528 0.271931 0)
(10.0866 0.342947 0)
(10.127 0.409049 0)
(10.1728 0.469678 0)
(10.2231 0.524533 0)
(10.2767 0.57354 0)
(10.3327 0.616803 0)
(10.3904 0.654557 0)
(10.4491 0.687123 0)
(10.5081 0.714869 0)
(10.567 0.738185 0)
(10.6254 0.757458 0)
(10.683 0.773059 0)
(10.7396 0.785335 0)
(10.7949 0.794601 0)
(10.8488 0.801141 0)
(10.9011 0.805203 0)
(10.9517 0.807007 0)
(11.0005 0.806742 0)
(11.0474 0.804569 0)
(11.0923 0.800626 0)
(11.1351 0.795028 0)
(11.1758 0.787869 0)
(11.2144 0.779225 0)
(11.2508 0.769156 0)
(11.2849 0.757703 0)
(11.3167 0.744893 0)
(11.3462 0.730737 0)
(11.3733 0.715229 0)
(11.3981 0.698351 0)
(11.4204 0.68006 0)
(11.4403 0.660308 0)
(11.4576 0.638999 0)
(11.4723 0.616123 0)
(11.4838 0.591206 0)
(11.4935 0.565846 0)
(11.4951 0.531452 0)
(10.0008 0.0355583 0)
(10.008 0.106627 0)
(10.0226 0.176616 0)
(10.0449 0.244329 0)
(10.0738 0.308778 0)
(10.1085 0.369228 0)
(10.1481 0.425163 0)
(10.1918 0.476267 0)
(10.2387 0.522406 0)
(10.288 0.563595 0)
(10.3391 0.599969 0)
(10.3913 0.631746 0)
(10.4441 0.659196 0)
(10.497 0.682623 0)
(10.5499 0.702337 0)
(10.6022 0.71865 0)
(10.6539 0.731855 0)
(10.7047 0.742231 0)
(10.7544 0.750027 0)
(10.803 0.755472 0)
(10.8503 0.758766 0)
(10.8963 0.760083 0)
(10.9407 0.759574 0)
(10.9837 0.75737 0)
(11.0251 0.753577 0)
(11.0648 0.748284 0)
(11.1029 0.741562 0)
(11.1391 0.733467 0)
(11.1736 0.724039 0)
(11.2062 0.713302 0)
(11.2368 0.70127 0)
(11.2655 0.687939 0)
(11.2921 0.673298 0)
(11.3166 0.657318 0)
(11.3389 0.639965 0)
(11.3588 0.621176 0)
(11.3763 0.600961 0)
(11.3909 0.578966 0)
(11.4033 0.556553 0)
(11.4094 0.526554 0)
(10.0007 0.0320522 0)
(10.0068 0.0961145 0)
(10.0194 0.159304 0)
(10.0386 0.220652 0)
(10.0635 0.279344 0)
(10.0936 0.334752 0)
(10.1281 0.386411 0)
(10.1663 0.434008 0)
(10.2076 0.477377 0)
(10.2513 0.516477 0)
(10.2967 0.551369 0)
(10.3434 0.58219 0)
(10.3909 0.609135 0)
(10.4387 0.632432 0)
(10.4866 0.652327 0)
(10.5343 0.669072 0)
(10.5815 0.682916 0)
(10.6281 0.694097 0)
(10.6739 0.702835 0)
(10.7188 0.709334 0)
(10.7628 0.713776 0)
(10.8056 0.716323 0)
(10.8473 0.717116 0)
(10.8878 0.716277 0)
(10.927 0.713911 0)
(10.9649 0.710102 0)
(11.0014 0.704922 0)
(11.0364 0.698424 0)
(11.0699 0.690651 0)
(11.1019 0.681632 0)
(11.1323 0.671382 0)
(11.161 0.659908 0)
(11.1879 0.647206 0)
(11.2129 0.633264 0)
(11.236 0.618065 0)
(11.2569 0.601577 0)
(11.2756 0.583827 0)
(11.2917 0.564573 0)
(11.3055 0.54495 0)
(11.3143 0.519102 0)
(10.0006 0.0290282 0)
(10.0059 0.0870481 0)
(10.0168 0.144354 0)
(10.0334 0.200154 0)
(10.0552 0.253772 0)
(10.0814 0.30467 0)
(10.1117 0.352435 0)
(10.1454 0.396769 0)
(10.1819 0.437493 0)
(10.2208 0.474528 0)
(10.2615 0.507885 0)
(10.3034 0.537643 0)
(10.3463 0.563935 0)
(10.3896 0.586927 0)
(10.4332 0.606811 0)
(10.4767 0.623789 0)
(10.52 0.638064 0)
(10.5628 0.649839 0)
(10.6051 0.659304 0)
(10.6466 0.666637 0)
(10.6873 0.672003 0)
(10.7271 0.67555 0)
(10.766 0.677408 0)
(10.8039 0.677694 0)
(10.8407 0.676506 0)
(10.8763 0.673928 0)
(10.9108 0.670031 0)
(10.9441 0.664871 0)
(10.976 0.658494 0)
(11.0067 0.650933 0)
(11.0359 0.642211 0)
(11.0637 0.632344 0)
(11.0899 0.621341 0)
(11.1144 0.609202 0)
(11.1372 0.595933 0)
(11.1581 0.581526 0)
(11.1769 0.566026 0)
(11.1934 0.549282 0)
(11.2076 0.532229 0)
(11.2179 0.510152 0)
(10.0005 0.0263967 0)
(10.0052 0.0791585 0)
(10.0147 0.131331 0)
(10.0292 0.18226 0)
(10.0483 0.23138 0)
(10.0714 0.278232 0)
(10.0981 0.322449 0)
(10.128 0.363756 0)
(10.1606 0.40197 0)
(10.1953 0.436993 0)
(10.2319 0.468801 0)
(10.2697 0.497429 0)
(10.3086 0.522962 0)
(10.348 0.545521 0)
(10.3878 0.565248 0)
(10.4277 0.582303 0)
(10.4674 0.596852 0)
(10.5069 0.609062 0)
(10.5459 0.619095 0)
(10.5843 0.627106 0)
(10.6221 0.633239 0)
(10.6591 0.637629 0)
(10.6953 0.640395 0)
(10.7307 0.641644 0)
(10.765 0.641472 0)
(10.7984 0.63996 0)
(10.8308 0.637178 0)
(10.8621 0.633184 0)
(10.8922 0.628027 0)
(10.9212 0.621746 0)
(10.9489 0.614372 0)
(10.9752 0.605931 0)
(11.0002 0.596441 0)
(11.0237 0.585921 0)
(11.0456 0.57439 0)
(11.0657 0.561866 0)
(11.084 0.548405 0)
(11.1003 0.533932 0)
(11.1143 0.519209 0)
(11.125 0.500475 0)
(10.0005 0.024088 0)
(10.0046 0.0722366 0)
(10.013 0.119895 0)
(10.0258 0.166518 0)
(10.0426 0.21163 0)
(10.0631 0.254839 0)
(10.0868 0.29582 0)
(10.1135 0.334323 0)
(10.1426 0.370169 0)
(10.1739 0.40325 0)
(10.2069 0.433519 0)
(10.2412 0.460981 0)
(10.2765 0.485685 0)
(10.3125 0.507712 0)
(10.349 0.52717 0)
(10.3856 0.544181 0)
(10.4223 0.558877 0)
(10.4587 0.571395 0)
(10.4948 0.581871 0)
(10.5305 0.590437 0)
(10.5656 0.59722 0)
(10.6001 0.602337 0)
(10.6338 0.605898 0)
(10.6668 0.608001 0)
(10.6989 0.608734 0)
(10.7301 0.608176 0)
(10.7604 0.606396 0)
(10.7897 0.603454 0)
(10.818 0.5994 0)
(10.8451 0.594279 0)
(10.8711 0.58813 0)
(10.896 0.580984 0)
(10.9195 0.572873 0)
(10.9416 0.563827 0)
(10.9623 0.55388 0)
(10.9814 0.543068 0)
(10.9988 0.531459 0)
(11.0144 0.519029 0)
(11.0279 0.506402 0)
(11.0386 0.490593 0)
(10.0004 0.0220469 0)
(10.0041 0.066117 0)
(10.0115 0.109776 0)
(10.0229 0.152568 0)
(10.0379 0.194091 0)
(10.0561 0.234007 0)
(10.0774 0.272031 0)
(10.1013 0.307938 0)
(10.1275 0.341557 0)
(10.1558 0.372777 0)
(10.1856 0.401536 0)
(10.2169 0.427819 0)
(10.2491 0.451648 0)
(10.2821 0.473076 0)
(10.3156 0.492178 0)
(10.3494 0.509047 0)
(10.3832 0.523788 0)
(10.417 0.536509 0)
(10.4505 0.547325 0)
(10.4837 0.556347 0)
(10.5164 0.563683 0)
(10.5485 0.569436 0)
(10.58 0.573703 0)
(10.6108 0.576575 0)
(10.6409 0.578132 0)
(10.6701 0.578449 0)
(10.6984 0.577593 0)
(10.7259 0.575623 0)
(10.7523 0.572592 0)
(10.7778 0.568548 0)
(10.8021 0.563534 0)
(10.8254 0.557591 0)
(10.8474 0.550758 0)
(10.8682 0.543075 0)
(10.8876 0.534587 0)
(10.9055 0.525344 0)
(10.9219 0.515422 0)
(10.9366 0.504833 0)
(10.9495 0.494089 0)
(10.9596 0.480828 0)
(10.0004 0.0202294 0)
(10.0036 0.0606676 0)
(10.0103 0.10076 0)
(10.0205 0.140122 0)
(10.0339 0.178412 0)
(10.0503 0.21534 0)
(10.0694 0.250657 0)
(10.0909 0.284159 0)
(10.1147 0.315689 0)
(10.1403 0.345134 0)
(10.1675 0.372426 0)
(10.196 0.397536 0)
(10.2256 0.420465 0)
(10.2559 0.441244 0)
(10.2868 0.459925 0)
(10.318 0.476577 0)
(10.3493 0.491278 0)
(10.3807 0.504117 0)
(10.4119 0.515186 0)
(10.4428 0.524578 0)
(10.4734 0.532386 0)
(10.5034 0.538697 0)
(10.5329 0.543598 0)
(10.5617 0.547169 0)
(10.5899 0.549484 0)
(10.6173 0.550614 0)
(10.6438 0.55062 0)
(10.6695 0.549562 0)
(10.6943 0.547494 0)
(10.7182 0.544465 0)
(10.741 0.540522 0)
(10.7627 0.53571 0)
(10.7833 0.530076 0)
(10.8027 0.523667 0)
(10.8209 0.516536 0)
(10.8377 0.508742 0)
(10.853 0.500365 0)
(10.8668 0.491443 0)
(10.879 0.482393 0)
(10.8886 0.471356 0)
(10.0003 0.0185996 0)
(10.0033 0.055781 0)
(10.0092 0.0926703 0)
(10.0184 0.128942 0)
(10.0305 0.164306 0)
(10.0453 0.198512 0)
(10.0626 0.231343 0)
(10.0822 0.262616 0)
(10.1038 0.292185 0)
(10.1271 0.319945 0)
(10.152 0.345821 0)
(10.1782 0.369775 0)
(10.2053 0.391796 0)
(10.2333 0.411897 0)
(10.2618 0.43011 0)
(10.2908 0.446484 0)
(10.3199 0.46108 0)
(10.3491 0.473966 0)
(10.3782 0.485215 0)
(10.4071 0.494905 0)
(10.4357 0.503113 0)
(10.4638 0.509916 0)
(10.4915 0.515386 0)
(10.5185 0.519596 0)
(10.5449 0.522613 0)
(10.5707 0.5245 0)
(10.5956 0.525318 0)
(10.6197 0.525123 0)
(10.643 0.523966 0)
(10.6654 0.5219 0)
(10.6868 0.518974 0)
(10.7071 0.515235 0)
(10.7264 0.510734 0)
(10.7446 0.505525 0)
(10.7616 0.499663 0)
(10.7773 0.493216 0)
(10.7916 0.486262 0)
(10.8046 0.478855 0)
(10.8161 0.471338 0)
(10.825 0.462256 0)
(10.0003 0.0171282 0)
(10.003 0.0513693 0)
(10.0084 0.0853631 0)
(10.0167 0.118834 0)
(10.0277 0.151535 0)
(10.0411 0.18325 0)
(10.0569 0.21379 0)
(10.0747 0.242993 0)
(10.0944 0.270726 0)
(10.1158 0.296887 0)
(10.1387 0.321403 0)
(10.1628 0.34423 0)
(10.1879 0.365346 0)
(10.2137 0.384752 0)
(10.2402 0.402466 0)
(10.2671 0.418519 0)
(10.2942 0.432957 0)
(10.3215 0.445831 0)
(10.3487 0.457201 0)
(10.3758 0.467128 0)
(10.4026 0.475675 0)
(10.429 0.482909 0)
(10.455 0.488892 0)
(10.4804 0.493687 0)
(10.5053 0.497354 0)
(10.5295 0.49995 0)
(10.553 0.501533 0)
(10.5757 0.502153 0)
(10.5976 0.501864 0)
(10.6186 0.500716 0)
(10.6387 0.498757 0)
(10.6578 0.496039 0)
(10.6759 0.492613 0)
(10.693 0.488536 0)
(10.7089 0.483867 0)
(10.7236 0.478674 0)
(10.7371 0.473036 0)
(10.7492 0.467016 0)
(10.7601 0.460893 0)
(10.7684 0.453546 0)
(10.0003 0.0157906 0)
(10.0027 0.0473588 0)
(10.0076 0.0787178 0)
(10.0152 0.109634 0)
(10.0253 0.139898 0)
(10.0376 0.169324 0)
(10.052 0.197747 0)
(10.0683 0.225023 0)
(10.0865 0.251032 0)
(10.1062 0.27568 0)
(10.1273 0.298895 0)
(10.1496 0.320628 0)
(10.1728 0.340853 0)
(10.1968 0.359559 0)
(10.2215 0.376753 0)
(10.2465 0.392455 0)
(10.2719 0.406696 0)
(10.2974 0.419514 0)
(10.3229 0.430954 0)
(10.3483 0.441065 0)
(10.3735 0.449901 0)
(10.3984 0.457514 0)
(10.4228 0.463959 0)
(10.4468 0.46929 0)
(10.4702 0.473559 0)
(10.4931 0.47682 0)
(10.5152 0.479123 0)
(10.5366 0.480517 0)
(10.5573 0.481052 0)
(10.5771 0.480776 0)
(10.596 0.479739 0)
(10.6141 0.477992 0)
(10.6311 0.475586 0)
(10.6471 0.472579 0)
(10.6621 0.469032 0)
(10.676 0.465012 0)
(10.6887 0.460596 0)
(10.7001 0.45585 0)
(10.7105 0.451002 0)
(10.7182 0.44521 0)
(10.0003 0.0145662 0)
(10.0025 0.0436874 0)
(10.007 0.0726325 0)
(10.014 0.101205 0)
(10.0232 0.129225 0)
(10.0345 0.156536 0)
(10.0478 0.182994 0)
(10.0629 0.208472 0)
(10.0797 0.232863 0)
(10.098 0.256079 0)
(10.1175 0.27805 0)
(10.1382 0.298729 0)
(10.1598 0.318082 0)
(10.1822 0.336092 0)
(10.2052 0.352759 0)
(10.2287 0.368089 0)
(10.2525 0.382104 0)
(10.2764 0.394831 0)
(10.3004 0.406302 0)
(10.3243 0.416556 0)
(10.348 0.425635 0)
(10.3714 0.433583 0)
(10.3945 0.440446 0)
(10.4172 0.446269 0)
(10.4393 0.451099 0)
(10.4609 0.454981 0)
(10.4818 0.457962 0)
(10.5021 0.460089 0)
(10.5216 0.461406 0)
(10.5403 0.46196 0)
(10.5582 0.4618 0)
(10.5752 0.460975 0)
(10.5913 0.459537 0)
(10.6064 0.457542 0)
(10.6206 0.45505 0)
(10.6337 0.452127 0)
(10.6457 0.448847 0)
(10.6565 0.445278 0)
(10.6664 0.441602 0)
(10.6736 0.437216 0)
(10.0002 0.013437 0)
(10.0023 0.0403016 0)
(10.0065 0.0670193 0)
(10.013 0.0934252 0)
(10.0215 0.119369 0)
(10.032 0.144716 0)
(10.0443 0.169343 0)
(10.0584 0.193138 0)
(10.074 0.216006 0)
(10.0909 0.237866 0)
(10.1092 0.258653 0)
(10.1285 0.278317 0)
(10.1487 0.296823 0)
(10.1697 0.31415 0)
(10.1913 0.330287 0)
(10.2133 0.345236 0)
(10.2356 0.359007 0)
(10.2582 0.371616 0)
(10.2808 0.383088 0)
(10.3033 0.393452 0)
(10.3257 0.402739 0)
(10.3479 0.410985 0)
(10.3697 0.418226 0)
(10.3911 0.424503 0)
(10.4121 0.429854 0)
(10.4325 0.434319 0)
(10.4523 0.43794 0)
(10.4715 0.440759 0)
(10.49 0.442818 0)
(10.5077 0.444161 0)
(10.5247 0.444834 0)
(10.5408 0.444884 0)
(10.556 0.444362 0)
(10.5703 0.443322 0)
(10.5837 0.441822 0)
(10.5961 0.439927 0)
(10.6075 0.437705 0)
(10.6178 0.435225 0)
(10.6273 0.43263 0)
(10.634 0.429527 0)
(10.0002 0.0123874 0)
(10.0021 0.0371547 0)
(10.0061 0.0618012 0)
(10.0121 0.0861911 0)
(10.0201 0.110199 0)
(10.0299 0.133713 0)
(10.0414 0.156625 0)
(10.0545 0.17884 0)
(10.0691 0.200273 0)
(10.085 0.220849 0)
(10.1021 0.240507 0)
(10.1203 0.259199 0)
(10.1392 0.276888 0)
(10.159 0.293547 0)
(10.1793 0.309162 0)
(10.2 0.323726 0)
(10.2211 0.337241 0)
(10.2424 0.349717 0)
(10.2638 0.361169 0)
(10.2851 0.371616 0)
(10.3063 0.381082 0)
(10.3273 0.389595 0)
(10.348 0.397184 0)
(10.3683 0.40388 0)
(10.3882 0.409718 0)
(10.4076 0.414732 0)
(10.4264 0.418957 0)
(10.4446 0.422432 0)
(10.4621 0.425195 0)
(10.479 0.427286 0)
(10.495 0.428749 0)
(10.5103 0.429628 0)
(10.5248 0.429973 0)
(10.5384 0.429833 0)
(10.5511 0.429266 0)
(10.5629 0.428333 0)
(10.5738 0.427097 0)
(10.5836 0.425627 0)
(10.5927 0.424034 0)
(10.599 0.422107 0)
(10.0002 0.0114035 0)
(10.002 0.0342046 0)
(10.0057 0.0569092 0)
(10.0114 0.0794084 0)
(10.0189 0.1016 0)
(10.0281 0.123391 0)
(10.039 0.144691 0)
(10.0514 0.165416 0)
(10.0651 0.185492 0)
(10.0801 0.204851 0)
(10.0962 0.223436 0)
(10.1133 0.241198 0)
(10.1313 0.258101 0)
(10.1499 0.274114 0)
(10.1691 0.289218 0)
(10.1888 0.303402 0)
(10.2088 0.316659 0)
(10.2289 0.328993 0)
(10.2492 0.34041 0)
(10.2694 0.350922 0)
(10.2895 0.360546 0)
(10.3095 0.369302 0)
(10.3291 0.377212 0)
(10.3484 0.384301 0)
(10.3673 0.390596 0)
(10.3858 0.396127 0)
(10.4037 0.400925 0)
(10.421 0.405021 0)
(10.4376 0.408452 0)
(10.4536 0.411254 0)
(10.4689 0.413467 0)
(10.4835 0.415132 0)
(10.4972 0.416294 0)
(10.5102 0.417004 0)
(10.5223 0.417313 0)
(10.5335 0.41728 0)
(10.5439 0.416964 0)
(10.5533 0.416432 0)
(10.5621 0.415766 0)
(10.5681 0.414923 0)
(10.0002 0.0104722 0)
(10.0019 0.0314125 0)
(10.0054 0.0522798 0)
(10.0108 0.0729906 0)
(10.018 0.093465 0)
(10.0268 0.113627 0)
(10.0371 0.133401 0)
(10.0488 0.152717 0)
(10.0619 0.171508 0)
(10.0761 0.189712 0)
(10.0914 0.207275 0)
(10.1077 0.224152 0)
(10.1247 0.240302 0)
(10.1424 0.255695 0)
(10.1607 0.270306 0)
(10.1794 0.284119 0)
(10.1984 0.297122 0)
(10.2175 0.309311 0)
(10.2368 0.320687 0)
(10.2561 0.331254 0)
(10.2752 0.341021 0)
(10.2942 0.350003 0)
(10.3129 0.358214 0)
(10.3313 0.365673 0)
(10.3493 0.372401 0)
(10.3669 0.378423 0)
(10.3839 0.383764 0)
(10.4004 0.388453 0)
(10.4163 0.392519 0)
(10.4315 0.395996 0)
(10.4461 0.39892 0)
(10.4599 0.401329 0)
(10.473 0.403266 0)
(10.4854 0.404775 0)
(10.4969 0.405907 0)
(10.5077 0.406715 0)
(10.5176 0.407257 0)
(10.5267 0.407596 0)
(10.5351 0.40779 0)
(10.5408 0.407945 0)
(10.0002 0.00958134 0)
(10.0018 0.0287414 0)
(10.0052 0.0478522 0)
(10.0104 0.0668556 0)
(10.0173 0.0856928 0)
(10.0257 0.104304 0)
(10.0356 0.122628 0)
(10.0469 0.140605 0)
(10.0594 0.158175 0)
(10.073 0.175282 0)
(10.0877 0.191875 0)
(10.1032 0.207909 0)
(10.1195 0.223344 0)
(10.1364 0.238145 0)
(10.1539 0.252286 0)
(10.1717 0.265744 0)
(10.1898 0.278503 0)
(10.2081 0.290552 0)
(10.2265 0.301886 0)
(10.2449 0.312504 0)
(10.2632 0.322407 0)
(10.2813 0.331603 0)
(10.2992 0.340101 0)
(10.3168 0.347914 0)
(10.3339 0.355057 0)
(10.3507 0.361548 0)
(10.3669 0.367409 0)
(10.3826 0.372662 0)
(10.3978 0.377335 0)
(10.4123 0.381455 0)
(10.4262 0.385055 0)
(10.4394 0.388169 0)
(10.4519 0.390837 0)
(10.4637 0.3931 0)
(10.4748 0.395004 0)
(10.485 0.396599 0)
(10.4946 0.397939 0)
(10.5033 0.399086 0)
(10.5114 0.400076 0)
(10.5169 0.401151 0)
(10.0002 0.00871833 0)
(10.0018 0.0261541 0)
(10.0051 0.0435663 0)
(10.0102 0.0609227 0)
(10.0168 0.0781855 0)
(10.025 0.0953105 0)
(10.0346 0.112249 0)
(10.0455 0.128948 0)
(10.0576 0.145356 0)
(10.0708 0.161421 0)
(10.0849 0.177095 0)
(10.0998 0.192331 0)
(10.1155 0.207089 0)
(10.1318 0.221332 0)
(10.1485 0.235029 0)
(10.1656 0.248154 0)
(10.183 0.260685 0)
(10.2006 0.272606 0)
(10.2182 0.283906 0)
(10.2358 0.294576 0)
(10.2533 0.304614 0)
(10.2707 0.31402 0)
(10.2878 0.322797 0)
(10.3045 0.330952 0)
(10.321 0.338495 0)
(10.337 0.345438 0)
(10.3525 0.351799 0)
(10.3675 0.357595 0)
(10.3819 0.362848 0)
(10.3958 0.367582 0)
(10.4091 0.371826 0)
(10.4217 0.37561 0)
(10.4336 0.378968 0)
(10.4449 0.381941 0)
(10.4554 0.384569 0)
(10.4653 0.386899 0)
(10.4745 0.388981 0)
(10.4828 0.390877 0)
(10.4908 0.392601 0)
(10.4959 0.394519 0)
(10.0002 0.00786987 0)
(10.0018 0.0236109 0)
(10.0051 0.0393579 0)
(10.0101 0.0551077 0)
(10.0167 0.0708428 0)
(10.0247 0.0865331 0)
(10.0341 0.10214 0)
(10.0448 0.117618 0)
(10.0566 0.13292 0)
(10.0694 0.147998 0)
(10.0831 0.162802 0)
(10.0976 0.177288 0)
(10.1128 0.191411 0)
(10.1285 0.205133 0)
(10.1447 0.218419 0)
(10.1612 0.231238 0)
(10.1779 0.243564 0)
(10.1948 0.255375 0)
(10.2118 0.266653 0)
(10.2287 0.277386 0)
(10.2455 0.287563 0)
(10.2621 0.297179 0)
(10.2785 0.306232 0)
(10.2946 0.314724 0)
(10.3103 0.322657 0)
(10.3256 0.330041 0)
(10.3404 0.336886 0)
(10.3547 0.343205 0)
(10.3685 0.349016 0)
(10.3818 0.354338 0)
(10.3944 0.359196 0)
(10.4065 0.363616 0)
(10.4179 0.367629 0)
(10.4287 0.371269 0)
(10.4388 0.374575 0)
(10.4482 0.37759 0)
(10.457 0.380361 0)
(10.4651 0.382946 0)
(10.4728 0.385344 0)
(10.4778 0.388031 0)
(10.0002 0.00702092 0)
(10.0018 0.0210663 0)
(10.0051 0.0351551 0)
(10.0101 0.0493177 0)
(10.0168 0.0635565 0)
(10.0248 0.077853 0)
(10.0341 0.092176 0)
(10.0447 0.106486 0)
(10.0563 0.120737 0)
(10.0689 0.134881 0)
(10.0823 0.14887 0)
(10.0965 0.162655 0)
(10.1112 0.176191 0)
(10.1265 0.189436 0)
(10.1422 0.202349 0)
(10.1582 0.214895 0)
(10.1744 0.227044 0)
(10.1907 0.238768 0)
(10.207 0.250044 0)
(10.2233 0.260853 0)
(10.2395 0.27118 0)
(10.2554 0.281013 0)
(10.2712 0.290344 0)
(10.2866 0.29917 0)
(10.3016 0.30749 0)
(10.3163 0.315304 0)
(10.3305 0.322621 0)
(10.3442 0.329447 0)
(10.3574 0.335796 0)
(10.37 0.341684 0)
(10.3821 0.347129 0)
(10.3936 0.352154 0)
(10.4045 0.356786 0)
(10.4148 0.361055 0)
(10.4245 0.364996 0)
(10.4336 0.368648 0)
(10.4421 0.372054 0)
(10.4498 0.375272 0)
(10.4573 0.378285 0)