/*--------------------------------*- C++ -*----------------------------------*\
| =========                 |                                                 |
| \\      /  F ield         | OpenFOAM: The Open Source CFD Toolbox           |
|  \\    /   O peration     | Version:  v1906                                 |
|   \\  /    A nd           | Web:      www.OpenFOAM.com                      |
|    \\/     M anipulation  |                                                 |
\*---------------------------------------------------------------------------*/
FoamFile
{
    version     2.0;
    format      ascii;
    class       volScalarField;
    location    "0.2";
    object      p;
}
// * * * * * * * * * * * * * * * * * * * * * * * * * * * * * * * * * * * * * //

dimensions      [0 2 -2 0 0 0 0];


internalField   nonuniform List<scalar> 
4800
(
7.89131e-11
-0.000171355
-0.000177503
-0.00013416
0.000118315
0.000393837
0.000264433
-0.000160169
5.50951e-05
0.000506352
0.000792686
0.000737977
0.000681031
0.00103935
0.00140786
0.00158783
0.00166177
0.00182242
0.00213098
0.00246168
1.49977e-06
-0.000172657
-0.000175665
-0.000180513
0.000119079
0.000390341
0.000264691
-0.000163415
6.00411e-05
0.000507347
0.000796253
0.000738152
0.000690202
0.00102057
0.00140982
0.00158931
0.00165683
0.00178974
0.00203184
0.00225971
1.28672e-06
-0.000173415
-0.000174997
-0.000161388
0.000119587
0.0003897
0.000263336
-0.000161311
6.03391e-05
0.000510688
0.000797016
0.000741317
0.000692805
0.00102391
0.00141354
0.00158902
0.00163657
0.00171865
0.0018979
0.00207844
1.33957e-06
-0.000174334
-0.000173378
-0.000173289
0.000119414
0.000389672
0.00025947
-0.00015598
5.62208e-05
0.000520016
0.000793006
0.000750561
0.000690478
0.00103037
0.00141566
0.00157552
0.00159867
0.00162478
0.00176009
0.00194334
1.26856e-06
-0.000175205
-0.000173003
-0.000182002
0.000118533
0.000391167
0.000254908
-0.000148203
4.91147e-05
0.00053131
0.000787581
0.000757673
0.000692653
0.00102154
0.00141378
0.00155019
0.00154387
0.00152784
0.00163257
0.00182314
8.36799e-07
-0.000175758
-0.000173845
-0.000188454
0.000115536
0.000394783
0.000247062
-0.000137591
3.96862e-05
0.000541833
0.000786579
0.000759116
0.000701151
0.00099892
0.0014004
0.00151503
0.0014767
0.00143754
0.00150844
0.00169659
6.5587e-07
-0.000176182
-0.000176462
-0.000193869
0.000110053
0.000400637
0.000237214
-0.000126314
3.27557e-05
0.00054651
0.000791079
0.000754291
0.000707149
0.000983436
0.00137228
0.00146737
0.0014042
0.00135085
0.00138621
0.00156592
-2.67257e-08
-0.000175878
-0.000181299
-0.00019745
0.000102384
0.000408072
0.000226997
-0.000118554
3.15427e-05
0.000543482
0.000800534
0.000748196
0.000702019
0.000975914
0.00133834
0.00141114
0.00132174
0.00125973
0.00127354
0.00143705
-1.4327e-06
-0.000174121
-0.000188798
-0.000199421
9.27561e-05
0.000415903
0.000219708
-0.000117873
3.6648e-05
0.000535441
0.000805943
0.000745999
0.000686174
0.00095351
0.00130329
0.00135122
0.00123052
0.00116521
0.00117241
0.00131093
-3.93005e-06
-0.000170497
-0.000199165
-0.000199993
8.23902e-05
0.000421738
0.000218098
-0.00012528
4.4841e-05
0.000528973
0.000801667
0.000748164
0.000667489
0.000909655
0.00126229
0.001296
0.00113721
0.00106454
0.00107881
0.00119181
-8.03779e-06
-0.000164265
-0.000212126
-0.000200737
7.30999e-05
0.000422798
0.000223459
-0.000139001
4.85215e-05
0.000530552
0.00078764
0.000744531
0.000654099
0.000844841
0.00119907
0.00124111
0.00105084
0.000958892
0.000990194
0.00108821
-1.43195e-05
-0.000154981
-0.000226895
-0.000203692
6.72336e-05
0.000418253
0.000234769
-0.000153173
4.03292e-05
0.000538688
0.000770711
0.000725363
0.000642955
0.000790694
0.00111548
0.00117526
0.000973569
0.000853585
0.000897674
0.00100123
-2.34043e-05
-0.000142438
-0.000241455
-0.000211821
6.57102e-05
0.000408047
0.000247674
-0.000158761
1.91197e-05
0.000545783
0.000761353
0.000688711
0.000621448
0.000749381
0.00102888
0.00109324
0.000896612
0.000752482
0.000797805
0.000923352
-3.56847e-05
-0.000126804
-0.000253372
-0.000228077
6.82354e-05
0.000395146
0.000256311
-0.000152512
-1.20739e-05
0.000538794
0.000761167
0.000645182
0.000573647
0.000712591
0.000956428
0.00100329
0.000810336
0.000656315
0.000695239
0.000841243
-5.14354e-05
-0.000109085
-0.000259603
-0.000253507
7.25316e-05
0.000384296
0.000255774
-0.00013398
-4.15037e-05
0.000510676
0.000763902
0.000611013
0.000496453
0.000651069
0.000893028
0.000925189
0.000722465
0.000557486
0.000590339
0.000748341
-7.05833e-05
-9.08826e-05
-0.000257339
-0.000288595
7.28541e-05
0.000380824
0.000245554
-0.000112021
-5.94715e-05
0.000462455
0.000752688
0.000590371
0.000420179
0.000563112
0.0008176
0.000858063
0.000647192
0.000458757
0.000482903
0.000646559
-9.27309e-05
-7.31471e-05
-0.000244765
-0.00033098
6.2144e-05
0.000387817
0.000230111
-0.000101725
-6.50318e-05
0.00040732
0.000715959
0.000574855
0.000366073
0.000459124
0.000718958
0.000787286
0.000583657
0.000374051
0.000378012
0.000538229
-0.00012309
-6.0769e-05
-0.000221224
-0.000374989
3.34444e-05
0.000403897
0.000218763
-0.00011162
-6.33264e-05
0.000362344
0.00065342
0.000550117
0.000333165
0.000372793
0.000602788
0.000692799
0.000522554
0.000304821
0.000281765
0.000432828
-0.000149168
-5.46522e-05
-0.000188319
-0.000414677
-1.6673e-05
0.000421209
0.000222084
-0.000148932
-7.48129e-05
0.000331516
0.000583015
0.000489305
0.000297456
0.000308692
0.000495149
0.000581332
0.00043977
0.00023614
0.000197661
0.00034181
-0.000174499
-5.72568e-05
-0.000145036
-0.000436416
-8.89091e-05
0.00042712
0.000246148
-0.000191152
-0.000114185
0.000309578
0.000526749
0.000400081
0.000228202
0.000256155
0.000415543
0.000471856
0.000337666
0.000149018
0.000112804
0.000258314
-0.000197463
-7.04725e-05
-0.000104969
-0.000439037
-0.000177862
0.000407745
0.000290283
-0.000216459
-0.000184966
0.000277507
0.000496023
0.000317752
0.000126105
0.000178457
0.000356098
0.000394557
0.000234351
4.12753e-05
6.66634e-07
0.000161447
-0.000216759
-9.29949e-05
-7.13811e-05
-0.000419819
-0.000271198
0.000353378
0.000341847
-0.000215157
-0.000283844
0.000205234
0.000482357
0.000270864
7.39705e-06
5.71085e-05
0.000286508
0.000347583
0.000160545
-6.92673e-05
-0.000136906
2.43071e-05
-0.000231792
-0.000122853
-5.11696e-05
-0.000378994
-0.000354032
0.000260808
0.000381525
-0.000172736
-0.000377764
8.82507e-05
0.000453581
0.000261032
-8.4689e-05
-9.72804e-05
0.000167513
0.000307965
0.000129026
-0.000151335
-0.000278586
-0.000152877
-0.000243008
-0.00015693
-4.85654e-05
-0.000326763
-0.000413217
0.000134737
0.000388698
-9.98843e-05
-0.000442049
-7.01313e-05
0.000378579
0.000274123
-0.000126753
-0.000251322
-1.93875e-06
0.000228196
0.00012305
-0.000186042
-0.000388334
-0.000339934
-0.000251358
-0.000191633
-6.44969e-05
-0.00027385
-0.000442659
-6.9383e-06
0.000348968
-1.96923e-05
-0.000458915
-0.00023829
0.000247371
0.000270036
-0.000121906
-0.000361757
-0.000199071
8.39061e-05
9.58524e-05
-0.00018131
-0.000446641
-0.000497438
-0.000258524
-0.000224087
-9.78475e-05
-0.000231206
-0.000443747
-0.000141406
0.000260069
4.03527e-05
-0.000427281
-0.000377664
6.75432e-05
0.000216672
-9.36838e-05
-0.000413792
-0.000377082
-0.000109489
9.21704e-06
-0.000175274
-0.0004607
-0.000598239
-0.000266481
-0.000252919
-0.000142971
-0.000207268
-0.000423636
-0.000252978
0.000131544
5.75975e-05
-0.000368192
-0.000468982
-0.000129943
0.000105409
-8.4094e-05
-0.000418227
-0.000502159
-0.000314979
-0.000140066
-0.000211565
-0.000456313
-0.000647807
-0.000276925
-0.000277811
-0.000192844
-0.000205223
-0.000394536
-0.000334831
-1.3961e-05
2.52973e-05
-0.000311944
-0.000509944
-0.000306072
-5.2644e-05
-0.000120333
-0.000405122
-0.0005723
-0.000489651
-0.000324971
-0.000307078
-0.000473087
-0.000669711
-0.000290839
-0.000299568
-0.000242234
-0.00022461
-0.000370634
-0.000386484
-0.000153554
-5.21875e-05
-0.000282925
-0.000513105
-0.000439767
-0.000229044
-0.000206898
-0.000409553
-0.000604195
-0.000616018
-0.000505525
-0.000446321
-0.00053229
-0.000694088
-0.000308616
-0.000320603
-0.000288124
-0.000260505
-0.000361104
-0.000416481
-0.00027344
-0.000158757
-0.000292442
-0.000505956
-0.000530353
-0.000391983
-0.000329748
-0.000449842
-0.000626413
-0.000700771
-0.000655965
-0.000600142
-0.000630832
-0.000742513
-0.000330416
-0.000342603
-0.000329582
-0.000305482
-0.000369287
-0.000437517
-0.000369526
-0.000273932
-0.000337934
-0.000509617
-0.000587723
-0.000524861
-0.000465776
-0.000525378
-0.000661958
-0.000760928
-0.000771738
-0.00074289
-0.000750011
-0.000818501
-0.000355731
-0.000366884
-0.00036749
-0.000353938
-0.000393938
-0.000459478
-0.000444431
-0.000382967
-0.000409643
-0.00053438
-0.000630172
-0.000627622
-0.000594065
-0.00062273
-0.000718946
-0.000815694
-0.000860976
-0.000863899
-0.000870625
-0.000912586
-0.000383668
-0.000393994
-0.000403545
-0.000402376
-0.000430963
-0.000487912
-0.00050448
-0.000478867
-0.000493586
-0.000580214
-0.000672536
-0.000707917
-0.000705338
-0.000726313
-0.000793295
-0.000875776
-0.000935131
-0.000963023
-0.000980556
-0.00101221
-0.000413576
-0.000423788
-0.000439058
-0.000449216
-0.000475081
-0.000523981
-0.000557107
-0.00056079
-0.000578333
-0.000641042
-0.000721603
-0.000775573
-0.000799307
-0.000825037
-0.000875894
-0.00094317
-0.0010039
-0.00104611
-0.00107599
-0.00110768
-0.000444768
-0.000455568
-0.000474667
-0.000493949
-0.000521895
-0.000565965
-0.000607071
-0.000631213
-0.000657554
-0.000709082
-0.00077799
-0.000837982
-0.000878823
-0.000913653
-0.000958662
-0.00101508
-0.001072
-0.00111992
-0.00115843
-0.00119376
-0.000476413
-0.000488301
-0.000510281
-0.000536358
-0.000568351
-0.000611054
-0.000656124
-0.000693148
-0.000728921
-0.000777392
-0.000838391
-0.000898399
-0.0009482
-0.000991258
-0.00103638
-0.00108711
-0.00113958
-0.00118817
-0.00123077
-0.00126934
-0.000507467
-0.000520683
-0.000545084
-0.000576093
-0.000612469
-0.000656169
-0.00070371
-0.000748609
-0.000792088
-0.000841343
-0.000898296
-0.000956799
-0.00101049
-0.00105903
-0.00110629
-0.00115508
-0.0012046
-0.00125213
-0.00129585
-0.00133605
-0.000536581
-0.000551092
-0.000577597
-0.000612212
-0.000652495
-0.000698272
-0.0007478
-0.000797531
-0.000846718
-0.000898172
-0.000953529
-0.00101053
-0.00106556
-0.00111713
-0.00116639
-0.00121492
-0.00126296
-0.00130949
-0.00135341
-0.00139437
-0.000562506
-0.000577921
-0.000605884
-0.000642803
-0.000685869
-0.000733639
-0.000784733
-0.000837179
-0.00088993
-0.000943579
-0.00099881
-0.00105488
-0.00111007
-0.00116314
-0.00121391
-0.0012628
-0.00131
-0.00135529
-0.00139831
-0.00143892
-0.000585067
-0.000602761
-0.000633499
-0.000673705
-0.00072037
-0.000771364
-0.000825152
-0.000880371
-0.000936135
-0.000992308
-0.00104897
-0.00110573
-0.00116172
-0.0012161
-0.00126836
-0.00131835
-0.00136603
-0.00141133
-0.00145421
-0.00149472
0.00321489
0.0037706
0.00353021
0.00288349
0.00241408
0.00223884
0.0020737
0.00170208
0.00115431
0.000688751
0.000432776
0.000220046
-0.000112844
-0.000549196
-0.00089118
-0.00102613
-0.00118876
-0.00165979
-0.00234788
-0.00294707
-0.00345407
-0.00411209
-0.00488939
-0.00568875
-0.00653028
-0.00721525
-0.00762645
-0.00784747
-0.00775944
-0.00734462
-0.0068446
-0.00629447
-0.00567617
-0.0051884
-0.00488909
-0.00469783
-0.00472423
-0.00496885
-0.00508121
-0.00488975
-0.00466052
-0.00461199
-0.00463873
-0.004598
-0.00451348
-0.00445212
-0.00440908
-0.00435654
-0.00429225
-0.00422911
-0.00417485
-0.00413064
-0.00409619
-0.00407113
-0.00405359
-0.00404149
-0.00403301
-0.00402691
-0.00402231
-0.00401865
-0.00401558
-0.004013
-0.00401085
-0.00400903
-0.00400754
-0.00400647
-0.00400567
-0.00400534
-0.00400514
-0.0040055
-0.00400576
-0.00400676
-0.00400734
-0.00400895
-0.00400969
-0.00401186
-0.00401273
-0.00401527
-0.00401646
-0.00401894
-0.00402092
-0.00402264
-0.00402607
-0.00402643
-0.00403148
-0.00403084
-0.00403623
-0.00403663
-0.00403959
-0.00404342
-0.00404238
-0.00404844
-0.00404634
-0.00404825
-0.00404874
-0.00404238
-0.00403783
-0.00402733
-0.00399957
-0.00396898
0.00272156
0.00339198
0.00342678
0.00287236
0.00239566
0.00220345
0.00203541
0.00166806
0.00112166
0.000655331
0.000402534
0.000197962
-0.000127938
-0.000565804
-0.000912513
-0.00104636
-0.00120765
-0.0016792
-0.00236281
-0.00295454
-0.00345606
-0.00410829
-0.00487668
-0.00566144
-0.00648823
-0.00716892
-0.00758491
-0.0078155
-0.00773479
-0.00732359
-0.00682879
-0.00628559
-0.00567004
-0.00518512
-0.00488701
-0.00469333
-0.00472178
-0.00496704
-0.00507898
-0.00488697
-0.00465822
-0.00461112
-0.00463849
-0.00459744
-0.00451277
-0.00445156
-0.00440887
-0.00435684
-0.00429292
-0.00422993
-0.0041756
-0.0041311
-0.00409645
-0.00407118
-0.00405348
-0.00404129
-0.00403279
-0.0040267
-0.00402214
-0.00401853
-0.00401551
-0.00401296
-0.00401083
-0.00400902
-0.00400753
-0.00400647
-0.00400567
-0.00400534
-0.00400514
-0.0040055
-0.00400576
-0.00400676
-0.00400734
-0.00400895
-0.00400969
-0.00401186
-0.00401273
-0.00401527
-0.00401646
-0.00401894
-0.00402092
-0.00402264
-0.00402608
-0.00402642
-0.00403149
-0.00403084
-0.00403623
-0.00403663
-0.00403958
-0.00404343
-0.00404237
-0.00404846
-0.00404634
-0.00404825
-0.00404874
-0.00404238
-0.00403783
-0.00402736
-0.00399966
-0.00396895
0.00246002
0.00314704
0.00335662
0.00291275
0.00243598
0.00221251
0.00202232
0.00164293
0.00108993
0.000615438
0.000360992
0.000167951
-0.000147655
-0.000581297
-0.000926672
-0.00106899
-0.00124405
-0.00171444
-0.00238028
-0.00295657
-0.00345569
-0.00410211
-0.00485134
-0.0056074
-0.00639703
-0.00704743
-0.00745822
-0.00770192
-0.00764177
-0.0072539
-0.0067798
-0.00625475
-0.0056574
-0.00518704
-0.00489937
-0.00471082
-0.00473216
-0.00496482
-0.00506947
-0.00488039
-0.00465786
-0.00461178
-0.00463705
-0.00459518
-0.00451137
-0.00445069
-0.00440866
-0.00435604
-0.00429229
-0.00422959
-0.0041756
-0.00413142
-0.00409697
-0.00407177
-0.00405409
-0.00404186
-0.00403328
-0.0040271
-0.00402243
-0.00401873
-0.00401563
-0.00401303
-0.00401087
-0.00400904
-0.00400754
-0.00400647
-0.00400567
-0.00400534
-0.00400514
-0.0040055
-0.00400576
-0.00400677
-0.00400733
-0.00400895
-0.00400969
-0.00401186
-0.00401273
-0.00401528
-0.00401646
-0.00401894
-0.00402092
-0.00402263
-0.00402608
-0.00402642
-0.00403149
-0.00403084
-0.00403623
-0.00403663
-0.00403958
-0.00404343
-0.00404237
-0.00404846
-0.00404635
-0.00404827
-0.00404876
-0.00404242
-0.00403786
-0.00402739
-0.00400001
-0.00396909
0.00227933
0.00290765
0.00320309
0.00286952
0.00242478
0.00219163
0.00198508
0.00159531
0.00103527
0.000554651
0.000306411
0.000129944
-0.000171319
-0.00059753
-0.000949842
-0.00110934
-0.00129047
-0.00174994
-0.00239726
-0.00296235
-0.00345872
-0.00409243
-0.00481676
-0.00553963
-0.00628532
-0.00690282
-0.00730932
-0.00756788
-0.00753428
-0.00717379
-0.00671989
-0.00621495
-0.0056407
-0.00518771
-0.00491065
-0.00472736
-0.00474179
-0.00495645
-0.00505026
-0.00486687
-0.00465356
-0.00460915
-0.00463182
-0.00458929
-0.00450671
-0.00444676
-0.00440523
-0.00435316
-0.00429064
-0.00422932
-0.0041764
-0.00413278
-0.00409847
-0.00407308
-0.0040551
-0.00404249
-0.00403359
-0.0040272
-0.00402243
-0.00401869
-0.00401559
-0.004013
-0.00401085
-0.00400903
-0.00400754
-0.00400647
-0.00400567
-0.00400534
-0.00400514
-0.0040055
-0.00400576
-0.00400677
-0.00400733
-0.00400895
-0.00400969
-0.00401186
-0.00401273
-0.00401528
-0.00401646
-0.00401894
-0.00402092
-0.00402264
-0.00402608
-0.00402642
-0.00403149
-0.00403084
-0.00403623
-0.00403663
-0.00403958
-0.00404344
-0.00404238
-0.00404847
-0.00404636
-0.00404829
-0.00404878
-0.00404247
-0.00403791
-0.00402743
-0.00400046
-0.00396935
0.00211647
0.00266204
0.0030082
0.00278875
0.00239611
0.00216965
0.00196148
0.00156504
0.000992687
0.000501283
0.000255753
9.24004e-05
-0.000196348
-0.000621331
-0.000984208
-0.00115131
-0.00132868
-0.00177916
-0.002415
-0.00296823
-0.00345503
-0.00407175
-0.00476965
-0.00545989
-0.00616524
-0.00675088
-0.00714905
-0.00742072
-0.00741482
-0.00708378
-0.00665163
-0.00616819
-0.00561892
-0.00518424
-0.0049183
-0.00474219
-0.00475018
-0.00494564
-0.00502846
-0.00485188
-0.00464902
-0.00460638
-0.00462587
-0.00458256
-0.00450162
-0.00444285
-0.00440159
-0.00434993
-0.00428881
-0.00422891
-0.00417696
-0.00413384
-0.00409971
-0.00407428
-0.00405614
-0.00404338
-0.00403434
-0.00402781
-0.00402289
-0.00401901
-0.00401579
-0.00401312
-0.00401092
-0.00400907
-0.00400755
-0.00400647
-0.00400568
-0.00400534
-0.00400514
-0.0040055
-0.00400576
-0.00400676
-0.00400733
-0.00400895
-0.00400969
-0.00401186
-0.00401273
-0.00401528
-0.00401646
-0.00401894
-0.00402092
-0.00402264
-0.00402608
-0.00402642
-0.00403149
-0.00403084
-0.00403623
-0.00403664
-0.00403958
-0.00404344
-0.00404239
-0.00404847
-0.00404639
-0.00404831
-0.00404882
-0.00404253
-0.00403799
-0.00402747
-0.00400094
-0.00396967
0.0019672
0.00243313
0.00280363
0.00268896
0.00235211
0.0021387
0.00193865
0.00154015
0.000955522
0.000446875
0.000196306
4.79269e-05
-0.000227687
-0.000652311
-0.00101608
-0.00118276
-0.00136124
-0.00181025
-0.00243448
-0.00297117
-0.00344617
-0.00404706
-0.00471902
-0.00537642
-0.0060431
-0.00659703
-0.00698427
-0.00726613
-0.00728812
-0.00698973
-0.00658104
-0.00611913
-0.00559491
-0.00517917
-0.00492542
-0.004757
-0.00475851
-0.00493465
-0.00500653
-0.00483706
-0.00464463
-0.0046032
-0.00461925
-0.00457543
-0.00449633
-0.00443848
-0.00439715
-0.00434603
-0.00428649
-0.00422797
-0.00417712
-0.00413472
-0.004101
-0.00407571
-0.00405748
-0.00404446
-0.00403512
-0.00402829
-0.00402315
-0.00401914
-0.00401584
-0.00401313
-0.00401092
-0.00400906
-0.00400754
-0.00400647
-0.00400567
-0.00400534
-0.00400514
-0.0040055
-0.00400576
-0.00400676
-0.00400733
-0.00400895
-0.00400968
-0.00401186
-0.00401273
-0.00401528
-0.00401645
-0.00401894
-0.00402092
-0.00402264
-0.00402608
-0.00402643
-0.00403149
-0.00403085
-0.00403622
-0.00403664
-0.00403958
-0.00404345
-0.0040424
-0.00404848
-0.00404641
-0.00404834
-0.00404887
-0.0040426
-0.0040381
-0.00402752
-0.0040014
-0.00397003
0.00183606
0.00223498
0.00259352
0.00256362
0.00228712
0.00208898
0.00190217
0.00151585
0.000925154
0.000393837
0.00013454
1.20139e-06
-0.000260753
-0.000681431
-0.00104638
-0.00121976
-0.00140336
-0.0018439
-0.00245027
-0.00297195
-0.00343457
-0.00401813
-0.004665
-0.005289
-0.00591773
-0.00644385
-0.00681962
-0.0071056
-0.00715352
-0.00689071
-0.00650752
-0.00606696
-0.00556783
-0.00517203
-0.00493091
-0.00477032
-0.0047659
-0.00492297
-0.00498362
-0.00482093
-0.00463888
-0.00459883
-0.00461165
-0.00456724
-0.00448976
-0.00443295
-0.00439211
-0.00434139
-0.00428378
-0.00422693
-0.00417741
-0.00413584
-0.00410247
-0.00407712
-0.00405864
-0.00404532
-0.00403573
-0.00402872
-0.00402345
-0.00401934
-0.00401598
-0.00401321
-0.00401097
-0.00400908
-0.00400755
-0.00400647
-0.00400566
-0.00400533
-0.00400513
-0.00400549
-0.00400575
-0.00400676
-0.00400733
-0.00400894
-0.00400968
-0.00401186
-0.00401272
-0.00401527
-0.00401645
-0.00401894
-0.00402092
-0.00402264
-0.00402608
-0.00402643
-0.00403148
-0.00403085
-0.00403622
-0.00403665
-0.00403958
-0.00404345
-0.00404241
-0.00404849
-0.00404645
-0.00404837
-0.00404893
-0.00404267
-0.00403823
-0.00402757
-0.00400185
-0.00397042
0.0017161
0.00206517
0.00237861
0.00241059
0.00220688
0.00202311
0.00184873
0.00148879
0.000901306
0.000348626
7.46271e-05
-5.30538e-05
-0.000299026
-0.000712735
-0.00108753
-0.00127013
-0.00144466
-0.00186553
-0.00245909
-0.00297332
-0.0034204
-0.00398309
-0.00460903
-0.00520149
-0.00579124
-0.00629157
-0.00665402
-0.00693757
-0.00700911
-0.0067851
-0.00643038
-0.00601174
-0.00553771
-0.00516181
-0.0049332
-0.00478115
-0.00477185
-0.0049101
-0.00495919
-0.00480337
-0.00463228
-0.00459398
-0.00460343
-0.00455844
-0.00448312
-0.00442785
-0.00438732
-0.00433937
-0.00428115
-0.0042259
-0.00417759
-0.00413672
-0.00410366
-0.00407842
-0.00405988
-0.00404643
-0.00403662
-0.00402938
-0.00402389
-0.00401962
-0.00401612
-0.00401328
-0.00401101
-0.00400908
-0.00400754
-0.00400646
-0.00400565
-0.00400532
-0.00400512
-0.00400548
-0.00400575
-0.00400675
-0.00400732
-0.00400894
-0.00400968
-0.00401185
-0.00401272
-0.00401527
-0.00401645
-0.00401894
-0.00402092
-0.00402264
-0.00402607
-0.00402643
-0.00403148
-0.00403085
-0.00403622
-0.00403666
-0.00403959
-0.00404346
-0.00404243
-0.00404849
-0.00404649
-0.0040484
-0.004049
-0.00404274
-0.00403838
-0.00402762
-0.00400227
-0.00397085
0.00159496
0.00191555
0.00216913
0.00223649
0.00211362
0.00194776
0.00177665
0.0014465
0.000879902
0.000310594
1.21674e-05
-0.000113691
-0.00034165
-0.000748978
-0.00113382
-0.00131769
-0.00147688
-0.00188347
-0.00247084
-0.00297767
-0.00340388
-0.00394185
-0.00455048
-0.00511376
-0.00566205
-0.00613627
-0.00648643
-0.00676511
-0.00685634
-0.00667133
-0.00634881
-0.005954
-0.00550424
-0.00514755
-0.00493208
-0.00478966
-0.0047762
-0.00489596
-0.00493397
-0.00478556
-0.00462544
-0.00458855
-0.00459467
-0.00454941
-0.00447613
-0.00442187
-0.00438152
-0.00433425
-0.00427801
-0.00422441
-0.0041774
-0.00413743
-0.00410487
-0.00407976
-0.00406107
-0.00404733
-0.00403723
-0.00402975
-0.00402411
-0.00401973
-0.00401617
-0.00401329
-0.00401101
-0.00400905
-0.00400753
-0.00400644
-0.00400563
-0.0040053
-0.00400511
-0.00400547
-0.00400573
-0.00400674
-0.00400731
-0.00400893
-0.00400967
-0.00401185
-0.00401272
-0.00401527
-0.00401645
-0.00401894
-0.00402091
-0.00402264
-0.00402607
-0.00402643
-0.00403148
-0.00403086
-0.00403622
-0.00403666
-0.00403959
-0.00404346
-0.00404245
-0.0040485
-0.00404654
-0.00404844
-0.00404909
-0.00404282
-0.00403855
-0.00402769
-0.00400266
-0.0039713
0.0014648
0.00177641
0.00197856
0.00204986
0.0020006
0.00186584
0.00168539
0.00137968
0.000855066
0.000278047
-4.84916e-05
-0.000170591
-0.000386358
-0.000791299
-0.00117642
-0.00136111
-0.00151737
-0.00191039
-0.0024806
-0.00297506
-0.00338168
-0.0038947
-0.00448687
-0.00502594
-0.00553366
-0.0059789
-0.00631805
-0.00658988
-0.00669361
-0.00654736
-0.00626321
-0.00589472
-0.00546764
-0.00512939
-0.00492763
-0.0047955
-0.00477884
-0.00488129
-0.00490854
-0.00476696
-0.00461747
-0.0045822
-0.00458502
-0.00453915
-0.00446788
-0.00441515
-0.00437552
-0.00432919
-0.00427471
-0.00422281
-0.00417719
-0.00413812
-0.00410601
-0.00408101
-0.00406227
-0.0040484
-0.00403813
-0.00403047
-0.00402463
-0.00402008
-0.00401638
-0.00401339
-0.00401108
-0.00400906
-0.00400751
-0.00400642
-0.00400561
-0.00400528
-0.00400509
-0.00400545
-0.00400572
-0.00400673
-0.0040073
-0.00400892
-0.00400966
-0.00401184
-0.00401271
-0.00401527
-0.00401644
-0.00401893
-0.00402091
-0.00402264
-0.00402607
-0.00402643
-0.00403148
-0.00403086
-0.00403622
-0.00403667
-0.0040396
-0.00404346
-0.00404248
-0.00404851
-0.0040466
-0.00404848
-0.00404919
-0.0040429
-0.00403874
-0.00402778
-0.00400302
-0.00397178
0.00132731
0.00163495
0.00181079
0.0018594
0.00186106
0.00177431
0.00158383
0.00128921
0.000816986
0.00025338
-0.00010125
-0.000226322
-0.000433696
-0.000837076
-0.00121991
-0.00141168
-0.00156556
-0.00193284
-0.00248027
-0.00296585
-0.00335933
-0.00384643
-0.00441875
-0.00493862
-0.00540661
-0.00581839
-0.00614682
-0.00641067
-0.00652326
-0.00641652
-0.0061738
-0.00583268
-0.00542777
-0.00510741
-0.00491926
-0.00479829
-0.00477994
-0.00486567
-0.00488171
-0.00474679
-0.00460823
-0.00457458
-0.00457404
-0.00452801
-0.0044594
-0.00440841
-0.00436925
-0.00432365
-0.00427094
-0.00422086
-0.00417662
-0.0041385
-0.00410695
-0.00408218
-0.00406339
-0.00404929
-0.00403873
-0.00403081
-0.00402478
-0.00402013
-0.00401636
-0.00401333
-0.00401084
-0.00400902
-0.00400747
-0.00400638
-0.00400558
-0.00400525
-0.00400506
-0.00400543
-0.0040057
-0.00400671
-0.00400728
-0.00400891
-0.00400965
-0.00401183
-0.0040127
-0.00401526
-0.00401644
-0.00401893
-0.0040209
-0.00402264
-0.00402607
-0.00402643
-0.00403148
-0.00403086
-0.00403622
-0.00403667
-0.00403961
-0.00404346
-0.00404252
-0.00404851
-0.00404667
-0.00404852
-0.00404931
-0.004043
-0.00403894
-0.00402788
-0.00400335
-0.00397228
0.00119605
0.00148355
0.00165682
0.00167416
0.00169351
0.00166638
0.00148508
0.00118343
0.000757793
0.000231372
-0.00014938
-0.000287868
-0.000478256
-0.000878743
-0.0012725
-0.00146779
-0.00160461
-0.00194959
-0.00248399
-0.00296064
-0.00333575
-0.00379226
-0.00434413
-0.00484725
-0.00527867
-0.00565861
-0.00597433
-0.00622883
-0.0063497
-0.0062793
-0.00607679
-0.00576622
-0.00538561
-0.00508211
-0.00490666
-0.00479729
-0.00477816
-0.00484806
-0.00485358
-0.00472544
-0.00459764
-0.00456587
-0.00456262
-0.00451669
-0.00445038
-0.00440072
-0.00436206
-0.00431751
-0.00426687
-0.00421856
-0.00417583
-0.00413875
-0.00410779
-0.00408323
-0.00406442
-0.00405023
-0.00403954
-0.00403148
-0.00402529
-0.0040205
-0.00401658
-0.00401346
-0.00401096
-0.00400901
-0.00400745
-0.00400635
-0.00400554
-0.00400522
-0.00400503
-0.0040054
-0.00400567
-0.00400669
-0.00400726
-0.00400889
-0.00400964
-0.00401182
-0.00401269
-0.00401525
-0.00401643
-0.00401893
-0.0040209
-0.00402264
-0.00402606
-0.00402643
-0.00403147
-0.00403087
-0.00403622
-0.00403667
-0.00403963
-0.00404346
-0.00404256
-0.00404852
-0.00404674
-0.00404857
-0.00404944
-0.00404311
-0.00403915
-0.00402801
-0.00400365
-0.00397278
0.00108628
0.00132856
0.00150133
0.0014993
0.00150689
0.00153641
0.0013898
0.00107136
0.000674306
0.000198789
-0.000193637
-0.000351537
-0.000518837
-0.000914143
-0.00132923
-0.00152469
-0.00164183
-0.00196999
-0.00249303
-0.00295382
-0.00330172
-0.00373029
-0.00426631
-0.00475292
-0.0051537
-0.00550231
-0.00579919
-0.00604506
-0.00617443
-0.00613448
-0.00597088
-0.00569567
-0.00534178
-0.00505349
-0.00488873
-0.00479081
-0.00477284
-0.00482917
-0.00482475
-0.00470297
-0.00458603
-0.00455657
-0.00455034
-0.00450392
-0.0044399
-0.00439217
-0.00435451
-0.00431116
-0.0042624
-0.00421594
-0.00417467
-0.00413866
-0.00410838
-0.00408417
-0.00406543
-0.00405109
-0.00404016
-0.00403184
-0.00402543
-0.00402052
-0.0040165
-0.00401335
-0.00401088
-0.00400893
-0.00400737
-0.00400628
-0.00400548
-0.00400516
-0.00400498
-0.00400536
-0.00400564
-0.00400666
-0.00400724
-0.00400887
-0.00400962
-0.00401181
-0.00401268
-0.00401524
-0.00401642
-0.00401892
-0.00402089
-0.00402263
-0.00402606
-0.00402643
-0.00403147
-0.00403087
-0.00403623
-0.00403667
-0.00403965
-0.00404346
-0.0040426
-0.00404853
-0.00404683
-0.00404863
-0.00404959
-0.00404324
-0.00403936
-0.00402816
-0.00400393
-0.0039733
0.000995851
0.00118234
0.00133657
0.00133546
0.00131998
0.00137891
0.00128471
0.00096097
0.000570691
0.00015032
-0.000231874
-0.000414451
-0.000565276
-0.000943932
-0.00137625
-0.0015874
-0.00169095
-0.00198711
-0.00249316
-0.00294427
-0.00326792
-0.00366765
-0.00418356
-0.00465511
-0.00502949
-0.00534448
-0.00562355
-0.0058653
-0.00599804
-0.00598016
-0.00585578
-0.00562092
-0.00529599
-0.00502136
-0.00486518
-0.00477887
-0.00476433
-0.00480909
-0.00479534
-0.0046796
-0.00457291
-0.00454521
-0.00453611
-0.00449001
-0.004429
-0.00438331
-0.00434645
-0.00430415
-0.00425727
-0.0042128
-0.00417317
-0.00413835
-0.00410877
-0.00408487
-0.00406618
-0.00405178
-0.00404075
-0.00403233
-0.00402582
-0.00402082
-0.00401669
-0.00401365
-0.00401092
-0.0040089
-0.00400732
-0.00400622
-0.00400542
-0.0040051
-0.00400493
-0.00400531
-0.0040056
-0.00400662
-0.00400721
-0.00400885
-0.0040096
-0.00401179
-0.00401266
-0.00401523
-0.00401641
-0.00401891
-0.00402089
-0.00402263
-0.00402606
-0.00402643
-0.00403147
-0.00403087
-0.00403623
-0.00403667
-0.00403967
-0.00404346
-0.00404266
-0.00404854
-0.00404692
-0.0040487
-0.00404974
-0.00404338
-0.00403957
-0.00402834
-0.00400418
-0.0039738
0.000910009
0.00105333
0.00116994
0.00117805
0.00114425
0.00119481
0.00115713
0.000855858
0.000458531
8.67042e-05
-0.000267836
-0.000478709
-0.000623413
-0.000969749
-0.001411
-0.00165213
-0.00174697
-0.00200105
-0.00248396
-0.00293737
-0.00324405
-0.0035986
-0.00408723
-0.00455486
-0.00490613
-0.00518752
-0.00545442
-0.0056901
-0.0058162
-0.00581588
-0.00573339
-0.00554218
-0.00524752
-0.00498609
-0.00483676
-0.00476117
-0.00475166
-0.00478757
-0.00476525
-0.00465413
-0.00455689
-0.00453204
-0.00452144
-0.00447579
-0.00441719
-0.00437328
-0.00433742
-0.00429651
-0.00425171
-0.00420929
-0.00417122
-0.00413755
-0.00410877
-0.00408535
-0.00406688
-0.00405248
-0.00404132
-0.00403269
-0.00402595
-0.00402084
-0.0040166
-0.00401343
-0.00401078
-0.00400878
-0.0040072
-0.00400612
-0.00400533
-0.00400503
-0.00400486
-0.00400525
-0.00400555
-0.00400658
-0.00400717
-0.00400882
-0.00400957
-0.00401177
-0.00401265
-0.00401522
-0.0040164
-0.0040189
-0.00402088
-0.00402262
-0.00402605
-0.00402643
-0.00403147
-0.00403087
-0.00403624
-0.00403667
-0.0040397
-0.00404346
-0.00404272
-0.00404856
-0.00404703
-0.00404879
-0.00404989
-0.00404356
-0.00403978
-0.00402854
-0.00400441
-0.0039743
0.00081546
0.000938596
0.00101093
0.00101694
0.000980071
0.00100224
0.00100292
0.000750234
0.000345483
4.1296e-06
-0.000307445
-0.000540309
-0.000689046
-0.000999748
-0.00143873
-0.0017019
-0.00180304
-0.00202727
-0.00247196
-0.00292535
-0.00322193
-0.00352394
-0.00398548
-0.00445437
-0.00478212
-0.00503335
-0.00528939
-0.00551454
-0.00563216
-0.00564829
-0.00560419
-0.00545631
-0.00519548
-0.00494861
-0.00480371
-0.00473706
-0.00473411
-0.00476365
-0.00473343
-0.00462674
-0.00453951
-0.00451808
-0.00450561
-0.00445987
-0.00440386
-0.00436231
-0.00432781
-0.00428836
-0.00424553
-0.00420511
-0.00416879
-0.00413644
-0.00410856
-0.00408563
-0.00406732
-0.0040529
-0.00404166
-0.00403294
-0.00402611
-0.00402096
-0.00401689
-0.00401347
-0.00401075
-0.00400869
-0.0040071
-0.00400601
-0.00400523
-0.00400493
-0.00400478
-0.00400518
-0.00400548
-0.00400653
-0.00400713
-0.00400878
-0.00400954
-0.00401174
-0.00401262
-0.0040152
-0.00401638
-0.00401889
-0.00402087
-0.00402262
-0.00402605
-0.00402643
-0.00403148
-0.00403086
-0.00403626
-0.00403666
-0.00403973
-0.00404345
-0.00404279
-0.00404858
-0.00404713
-0.00404889
-0.00405005
-0.00404375
-0.00403999
-0.00402875
-0.00400464
-0.00397478
0.00070897
0.000824144
0.000859974
0.000848718
0.00082299
0.000823192
0.000829922
0.000632191
0.000231966
-9.86515e-05
-0.000354711
-0.000589654
-0.000758198
-0.00104252
-0.0014624
-0.00173725
-0.00185649
-0.00206239
-0.00246153
-0.00290256
-0.00319526
-0.00345827
-0.00388576
-0.00434311
-0.00465393
-0.0048849