/*--------------------------------*- C++ -*----------------------------------*\
| =========                 |                                                 |
| \\      /  F ield         | OpenFOAM: The Open Source CFD Toolbox           |
|  \\    /   O peration     | Version:  v1906                                 |
|   \\  /    A nd           | Web:      www.OpenFOAM.com                      |
|    \\/     M anipulation  |                                                 |
\*---------------------------------------------------------------------------*/
FoamFile
{
    version     2.0;
    format      ascii;
    class       surfaceScalarField;
    location    "0.2";
    object      phi;
}
// * * * * * * * * * * * * * * * * * * * * * * * * * * * * * * * * * * * * * //

dimensions      [0 3 -1 0 0 0 0];
oriented        oriented;


internalField   nonuniform List<scalar> 
9440
(
3.88205e-06
7.18366e-08
3.87813e-06
-1.14219e-07
3.88431e-06
-4.74512e-08
3.87435e-06
-3.25022e-09
3.87096e-06
1.81374e-07
3.861e-06
1.2347e-07
3.86425e-06
9.53153e-08
3.86278e-06
-8.67424e-08
3.87476e-06
-1.08282e-07
3.87677e-06
-1.9194e-07
3.88301e-06
-1.40776e-07
3.8834e-06
-1.01365e-07
3.88579e-06
-1.78936e-08
3.88353e-06
-4.70092e-09
3.88213e-06
5.384e-08
3.88151e-06
4.47321e-08
3.87853e-06
6.70885e-08
3.87216e-06
4.31581e-08
3.85694e-06
5.86144e-08
4.65297e-08
3.83643e-06
4.18425e-06
7.34496e-08
4.18559e-06
-1.15563e-07
4.18445e-06
-4.63069e-08
4.18211e-06
-9.18264e-10
4.17734e-06
1.86146e-07
4.17646e-06
1.24357e-07
4.17682e-06
9.49476e-08
4.1752e-06
-8.51234e-08
4.18003e-06
-1.13106e-07
4.17748e-06
-1.89395e-07
4.18119e-06
-1.44482e-07
4.17843e-06
-9.85997e-08
4.18373e-06
-2.32004e-08
4.1787e-06
3.29455e-10
4.18278e-06
4.97659e-08
4.17768e-06
4.98305e-08
4.17769e-06
6.70714e-08
4.1685e-06
5.23559e-08
4.16379e-06
6.33204e-08
5.54477e-08
4.15487e-06
4.52016e-06
7.33514e-08
4.51877e-06
-1.14176e-07
4.51584e-06
-4.3376e-08
4.51332e-06
1.60268e-09
4.51674e-06
1.82732e-07
4.51787e-06
1.23222e-07
4.52342e-06
8.94022e-08
4.51745e-06
-7.91617e-08
4.51925e-06
-1.14906e-07
4.5081e-06
-1.78239e-07
4.50994e-06
-1.46324e-07
4.50111e-06
-8.97674e-08
4.50862e-06
-3.07156e-08
4.50142e-06
7.5335e-09
4.5096e-06
4.15825e-08
4.50324e-06
5.61977e-08
4.50748e-06
6.28253e-08
4.49951e-06
6.03304e-08
4.49926e-06
6.35687e-08
6.16737e-08
4.49303e-06
4.88381e-06
7.0486e-08
4.87935e-06
-1.09714e-07
4.87662e-06
-4.06418e-08
4.87312e-06
5.10398e-09
4.88208e-06
1.73766e-07
4.88404e-06
1.21266e-07
4.89274e-06
8.07026e-08
4.88408e-06
-7.0504e-08
4.88443e-06
-1.15253e-07
4.86914e-06
-1.62954e-07
4.86772e-06
-1.44904e-07
4.85826e-06
-8.03082e-08
4.86165e-06
-3.40999e-08
4.85894e-06
1.02422e-08
4.86221e-06
3.83103e-08
4.86154e-06
5.68677e-08
4.86093e-06
6.34349e-08
4.8585e-06
6.27618e-08
4.85777e-06
6.43006e-08
6.43036e-08
4.85514e-06
5.27462e-06
6.65134e-08
5.26879e-06
-1.0388e-07
5.26654e-06
-3.83915e-08
5.26233e-06
9.31396e-09
5.27381e-06
1.62285e-07
5.27549e-06
1.19587e-07
5.28571e-06
7.04741e-08
5.2757e-06
-6.04853e-08
5.27555e-06
-1.15106e-07
5.25954e-06
-1.46948e-07
5.25537e-06
-1.40732e-07
5.2477e-06
-7.26362e-08
5.24683e-06
-3.32278e-08
5.2474e-06
9.66626e-09
5.24673e-06
3.89789e-08
5.24834e-06
5.52587e-08
5.24761e-06
6.41631e-08
5.24591e-06
6.4464e-08
5.2456e-06
6.46154e-08
6.5262e-08
5.24464e-06
5.6959e-06
6.20732e-08
5.68924e-06
-9.72212e-08
5.68774e-06
-3.6887e-08
5.68273e-06
1.43159e-08
5.69547e-06
1.49552e-07
5.69664e-06
1.18415e-07
5.70716e-06
5.99552e-08
5.69739e-06
-5.07169e-08
5.69555e-06
-1.13262e-07
5.68191e-06
-1.33308e-07
5.67365e-06
-1.32477e-07
5.66963e-06
-6.86102e-08
5.66483e-06
-2.84365e-08
5.66657e-06
7.93266e-09
5.66532e-06
4.02307e-08
5.66597e-06
5.46014e-08
5.66629e-06
6.38508e-08
5.66493e-06
6.58233e-08
5.66493e-06
6.46083e-08
6.51927e-08
5.665e-06
6.1507e-06
5.72472e-08
6.14317e-06
-8.96953e-08
6.14268e-06
-3.63958e-08
6.1368e-06
2.0198e-08
6.15033e-06
1.36017e-07
6.15126e-06
1.17492e-07
6.16112e-06
5.00936e-08
6.15285e-06
-4.24467e-08
6.14828e-06
-1.08696e-07
6.13799e-06
-1.23015e-07
6.12597e-06
-1.20459e-07
6.12373e-06
-6.63694e-08
6.11845e-06
-2.31612e-08
6.11828e-06
8.10412e-09
6.11844e-06
4.00705e-08
6.11792e-06
5.5127e-08
6.11852e-06
6.32422e-08
6.11801e-06
6.63349e-08
6.11805e-06
6.45751e-08
6.43571e-08
6.11888e-06
6.64178e-06
5.2032e-08
6.63331e-06
-8.12279e-08
6.63388e-06
-3.6964e-08
6.62735e-06
2.67208e-08
6.64116e-06
1.22211e-07
6.64256e-06
1.16091e-07
6.65061e-06
4.20433e-08
6.645e-06
-3.68382e-08
6.63707e-06
-1.00763e-07
6.62936e-06
-1.15305e-07
6.61615e-06
-1.07246e-07
6.61246e-06
-6.26821e-08
6.60921e-06
-1.99089e-08
6.60653e-06
1.07839e-08
6.60712e-06
3.9478e-08
6.60709e-06
5.51554e-08
6.60745e-06
6.28861e-08
6.60759e-06
6.61904e-08
6.60764e-06
6.4533e-08
6.31475e-08
6.60885e-06
7.17203e-06
4.64313e-08
7.16259e-06
-7.17835e-08
7.16415e-06
-3.85249e-08
7.15747e-06
3.34013e-08
7.17075e-06
1.08932e-07
7.17354e-06
1.13294e-07
7.17875e-06
3.68346e-08
7.17627e-06
-3.43558e-08
7.16565e-06
-9.01396e-08
7.15857e-06
-1.08226e-07
7.14679e-06
-9.54736e-08
7.14008e-06
-5.59696e-08
7.1383e-06
-1.81261e-08
7.13542e-06
1.36628e-08
7.13463e-06
4.02722e-08
7.13535e-06
5.44339e-08
7.13602e-06
6.22186e-08
7.13639e-06
6.58119e-08
7.1366e-06
6.43272e-08
6.18897e-08
7.13786e-06
7.74457e-06
4.0462e-08
7.73419e-06
-6.13999e-08
7.73648e-06
-4.0816e-08
7.73037e-06
3.95116e-08
7.74219e-06
9.71101e-08
7.7472e-06
1.08289e-07
7.74918e-06
3.48538e-08
7.74911e-06
-3.42925e-08
7.73768e-06
-7.87103e-08
7.72902e-06
-9.95599e-08
7.71974e-06
-8.61942e-08
7.7112e-06
-4.74266e-08
7.70827e-06
-1.52025e-08
7.7072e-06
1.47317e-08
7.70532e-06
4.21557e-08
7.7056e-06
5.41578e-08
7.70712e-06
6.06938e-08
7.70785e-06
6.50805e-08
7.70819e-06
6.39869e-08
6.0915e-08
7.70917e-06
8.36273e-06
3.41899e-08
8.3516e-06
-5.02641e-08
8.35413e-06
-4.33462e-08
8.34956e-06
4.40794e-08
8.35895e-06
8.77198e-08
8.36655e-06
1.00691e-07
8.36578e-06
3.56215e-08
8.36636e-06
-3.48683e-08
8.35645e-06
-6.8805e-08
8.34492e-06
-8.80347e-08
8.33727e-06
-7.85346e-08
8.32938e-06
-3.95374e-08
8.32391e-06
-9.73977e-09
8.32372e-06
1.49251e-08
8.3229e-06
4.29785e-08
8.32203e-06
5.5024e-08
8.32362e-06
5.91004e-08
8.32515e-06
6.35546e-08
8.32566e-06
6.34755e-08
6.01831e-08
8.32639e-06
9.03011e-06
2.77267e-08
9.01857e-06
-3.87236e-08
9.02062e-06
-4.53983e-08
9.0186e-06
4.61006e-08
9.02486e-06
8.14608e-08
9.03477e-06
9.07817e-08
9.0326e-06
3.77879e-08
9.03182e-06
-3.40853e-08
9.0247e-06
-6.16804e-08
9.01115e-06
-7.44899e-08
9.00282e-06
-7.02062e-08
8.99712e-06
-3.3832e-08
8.99036e-06
-2.97957e-09
8.98861e-06
1.66676e-08
8.98972e-06
4.18763e-08
8.9889e-06
5.58419e-08
8.98955e-06
5.84462e-08
8.99172e-06
6.13848e-08
8.99278e-06
6.24135e-08
5.96182e-08
8.99335e-06
9.75058e-06
2.12447e-08
9.73913e-06
-2.72661e-08
9.73985e-06
-4.6117e-08
9.74118e-06
4.4762e-08
9.7443e-06
7.83499e-08
9.75537e-06
7.97036e-08
9.75364e-06
3.95211e-08
9.75001e-06
-3.04535e-08
9.74538e-06
-5.70488e-08
9.73202e-06
-6.11365e-08
9.72123e-06
-5.94175e-08
9.71711e-06
-2.97078e-08
9.71149e-06
2.6388e-09
9.70761e-06
2.05546e-08
9.70893e-06
4.055e-08
9.70957e-06
5.52002e-08
9.70966e-06
5.83641e-08
9.71137e-06
5.96669e-08
9.71316e-06
6.06282e-08
5.88944e-08
9.71388e-06
1.05284e-05
1.49731e-08
1.05176e-05
-1.65216e-08
1.05162e-05
-4.4696e-08
1.05211e-05
3.98273e-08
1.0522e-05
7.75008e-08
1.05324e-05
6.92992e-08
1.05328e-05
3.91266e-08
1.05261e-05
-2.37634e-08
1.05222e-05
-5.31873e-08
1.05113e-05
-5.0178e-08
1.04982e-05
-4.63217e-08
1.04935e-05
-2.50152e-08
1.04903e-05
5.79327e-09
1.04857e-05
2.51841e-08
1.04856e-05
4.06542e-08
1.04874e-05
5.33757e-08
1.04879e-05
5.78335e-08
1.04891e-05
5.85186e-08
1.04909e-05
5.87656e-08
5.76726e-08
1.04922e-05
1.13679e-05
9.19849e-09
1.13586e-05
-7.21406e-09
1.13545e-05
-4.05195e-08
1.13626e-05
3.16904e-08
1.13628e-05
7.73105e-08
1.13706e-05
6.15047e-08
1.13739e-05
3.5856e-08
1.13654e-05
-1.52711e-08
1.136e-05
-4.78307e-08
1.13521e-05
-4.23188e-08
1.13389e-05
-3.30841e-08
1.13318e-05
-1.78985e-08
1.13303e-05
7.33009e-09
1.1327e-05
2.83926e-08
1.13254e-05
4.22978e-08
1.13269e-05
5.18862e-08
1.13285e-05
5.62049e-08
1.13296e-05
5.74512e-08
1.13311e-05
5.73029e-08
5.60762e-08
1.13326e-05
1.22743e-05
4.23002e-09
1.22671e-05
-4.46659e-11
1.226e-05
-3.33702e-08
1.22702e-05
2.14536e-08
1.22717e-05
7.586e-08
1.22755e-05
5.76555e-08
1.22809e-05
3.04454e-08
1.2273e-05
-7.37624e-09
1.22646e-05
-3.94101e-08
1.22588e-05
-3.64798e-08
1.22479e-05
-2.21727e-08
1.22385e-05
-8.54827e-09
1.22363e-05
9.54475e-09
1.22353e-05
2.94017e-08
1.22337e-05
4.39173e-08
1.2234e-05
5.15478e-08
1.22357e-05
5.44712e-08
1.22375e-05
5.57142e-08
1.22388e-05
5.59825e-08
5.46682e-08
1.22402e-05
1.32528e-05
3.75644e-10
1.32484e-05
4.38554e-09
1.32385e-05
-2.34737e-08
1.32492e-05
1.07524e-08
1.32535e-05
7.15025e-08
1.32534e-05
5.77445e-08
1.32588e-05
2.50355e-08
1.32538e-05
-2.31544e-09
1.32428e-05
-2.83967e-08
1.32365e-05
-3.02226e-08
1.32288e-05
-1.44986e-08
1.32195e-05
7.78843e-10
1.32151e-05
1.39035e-08
1.3215e-05
2.95021e-08
1.32148e-05
4.41291e-08
1.32146e-05
5.17348e-08
1.32157e-05
5.34425e-08
1.32176e-05
5.37614e-08
1.32194e-05
5.42279e-08
5.35214e-08
1.32205e-05
1.43092e-05
-2.12363e-09
1.43078e-05
5.78103e-09
1.4296e-05
-1.15974e-08
1.43052e-05
1.52609e-09
1.43134e-05
6.32777e-08
1.43107e-05
6.04359e-08
1.43137e-05
2.21084e-08
1.43123e-05
-9.35869e-10
1.43008e-05
-1.69381e-08
1.42921e-05
-2.14926e-08
1.42868e-05
-9.2279e-09
1.42797e-05
7.9384e-09
1.42738e-05
1.97816e-08
1.42726e-05
3.06298e-08
1.42737e-05
4.30272e-08
1.42742e-05
5.12617e-08
1.42746e-05
5.30805e-08
1.42761e-05
5.22439e-08
1.42782e-05
5.21267e-08
5.21541e-08
1.42796e-05
1.545e-05
-3.14359e-09
1.54515e-05
4.28174e-09
1.54389e-05
1.01537e-09
1.54449e-05
-4.47559e-09
1.54568e-05
5.13642e-08
1.54538e-05
6.34203e-08
1.54527e-05
2.3267e-08
1.54536e-05
-1.85227e-09
1.54446e-05
-7.95012e-09
1.54334e-05
-1.02979e-08
1.54279e-05
-3.69789e-09
1.54238e-05
1.20651e-08
1.54185e-05
2.50358e-08
1.54157e-05
3.34636e-08
1.54165e-05
4.22206e-08
1.54181e-05
4.96019e-08
1.54189e-05
5.22942e-08
1.54197e-05
5.14906e-08
1.54215e-05
5.03411e-08
5.04141e-08
1.54232e-05
1.66821e-05
-2.74094e-09
1.66858e-05
5.25984e-10
1.6674e-05
1.27973e-08
1.66756e-05
-6.0496e-09
1.669e-05
3.69844e-08
1.66891e-05
6.42766e-08
1.66837e-05
2.86517e-08
1.66844e-05
-2.46224e-09
1.66795e-05
-3.10694e-09
1.66678e-05
1.40458e-09
1.66602e-05
3.89125e-09
1.66578e-05
1.44534e-08
1.66549e-05
2.80124e-08
1.66515e-05
3.68498e-08
1.66509e-05
4.27945e-08
1.66527e-05
4.77628e-08
1.66545e-05
5.05748e-08
1.66553e-05
5.06869e-08
1.66564e-05
4.92016e-08
4.85981e-08
1.66582e-05
1.80128e-05
-1.16829e-09
1.80178e-05
-4.45163e-09
1.80084e-05
2.22007e-08
1.80053e-05
-2.97362e-09
1.802e-05
2.22989e-08
1.8023e-05
6.12685e-08
1.80148e-05
3.68589e-08
1.80127e-05
-3.58229e-10
1.80114e-05
-1.83241e-09
1.80022e-05
1.0674e-08
1.79925e-05
1.35094e-08
1.79894e-05
1.75551e-08
1.79889e-05
2.86028e-08
1.79869e-05
3.88009e-08
1.7985e-05
4.46581e-08
1.79858e-05
4.69997e-08
1.79881e-05
4.83062e-08
1.79897e-05
4.9103e-08
1.79907e-05
4.81187e-08
4.71853e-08
1.79921e-05
1.94504e-05
1.14967e-09
1.94553e-05
-9.40269e-09
1.94495e-05
2.80554e-08
1.94426e-05
3.92384e-09
1.94551e-05
9.79314e-09
1.94623e-05
5.40108e-08
1.94538e-05
4.53519e-08
1.94479e-05
5.57415e-09
1.94481e-05
-1.99326e-09
1.94428e-05
1.59365e-08
1.9433e-05
2.33537e-08
1.94279e-05
2.26044e-08
1.94281e-05
2.84241e-08
1.94283e-05
3.86282e-08
1.9427e-05
4.59518e-08
1.94263e-05
4.77014e-08
1.94278e-05
4.67919e-08
1.94302e-05
4.67096e-08
1.94316e-05
4.66613e-08
4.56129e-08
1.94332e-05
2.10033e-05
3.7016e-09
2.1007e-05
-1.31623e-08
2.10052e-05
2.98948e-08
2.09962e-05
1.29395e-08
2.10043e-05
1.6945e-09
2.10149e-05
4.34096e-08
2.10088e-05
5.13985e-08
2.09994e-05
1.49599e-08
2.09984e-05
-9.68211e-10
2.09972e-05
1.71721e-08
2.09895e-05
3.09957e-08
2.09827e-05
2.94424e-08
2.09816e-05
2.9473e-08
2.09835e-05
3.68024e-08
2.09839e-05
4.54738e-08
2.09829e-05
4.87523e-08
2.09831e-05
4.65821e-08
2.09852e-05
4.46278e-08
2.09874e-05
4.44705e-08
4.38452e-08
2.09891e-05
2.26806e-05
5.99683e-09
2.26824e-05
-1.49101e-08
2.26842e-05
2.81176e-08
2.26751e-05
2.19701e-08
2.26776e-05
-8.26579e-10
2.26896e-05
3.14083e-08
2.2688e-05
5.30729e-08
2.26768e-05
2.60969e-08
2.26727e-05
3.12824e-09
2.26741e-05
1.58524e-08
2.26701e-05
3.49689e-08
2.2663e-05
3.65072e-08
2.26602e-05
3.23136e-08
2.26618e-05
3.51653e-08
2.2664e-05
4.32738e-08
2.26644e-05
4.84128e-08
2.26636e-05
4.73323e-08
2.26647e-05
4.35314e-08
2.26669e-05
4.22955e-08
4.17168e-08
2.2669e-05
2.44923e-05
7.65628e-09
2.44917e-05
-1.43163e-08
2.4496e-05
2.38194e-08
2.44887e-05
2.92235e-08
2.44863e-05
1.57288e-09
2.44971e-05
2.06451e-08
2.44998e-05
5.03593e-08
2.44898e-05
3.6107e-08
2.44825e-05
1.04343e-08
2.44837e-05
1.46065e-08
2.44835e-05
3.52413e-08
2.44783e-05
4.16336e-08
2.4474e-05
3.66147e-08
2.44742e-05
3.4976e-08
2.44773e-05
4.02482e-08
2.44791e-05
4.65233e-08
2.44791e-05
4.73557e-08
2.4479e-05
4.36535e-08
2.44807e-05
4.05767e-08
3.97173e-08
2.44827e-05
2.64487e-05
8.49882e-09
2.6446e-05
-1.16251e-08
2.64514e-05
1.84858e-08
2.64471e-05
3.35076e-08
2.64414e-05
7.21127e-09
2.64487e-05
1.33423e-08
2.64548e-05
4.4314e-08
2.6448e-05
4.28562e-08
2.64388e-05
1.9627e-08
2.64379e-05
1.55373e-08
2.64402e-05
3.29268e-08
2.64381e-05
4.37617e-08
2.64338e-05
4.08903e-08
2.64325e-05
3.62559e-08
2.64348e-05
3.80058e-08
2.64379e-05
4.34413e-08
2.64392e-05
4.59922e-08
2.64391e-05
4.3764e-08
2.64399e-05
3.98014e-08
3.798e-08
2.64416e-05
2.85613e-05
8.54827e-09
2.85572e-05
-7.55198e-09
2.85621e-05
1.35971e-08
2.85611e-05
3.44779e-08
2.85542e-05
1.41197e-08
2.85572e-05
1.03101e-08
2.85646e-05
3.69326e-08
2.85619e-05
4.55397e-08
2.85531e-05
2.84976e-08
2.85497e-05
1.89435e-08
2.85523e-05
3.02594e-08
2.8553e-05
4.30547e-08
2.85504e-05
4.34969e-08
2.85482e-05
3.84628e-08
2.85492e-05
3.69997e-08
2.85524e-05
4.02856e-08
2.85549e-05
4.34595e-08
2.85558e-05
4.28797e-08
2.85562e-05
3.94336e-08
3.66076e-08
2.85575e-05
3.08422e-05
7.9886e-09
3.08377e-05
-2.99377e-09
3.08411e-05
1.01703e-08
3.08429e-05
3.27315e-08
3.08366e-05
2.03709e-08
3.08359e-05
1.10489e-08
3.08425e-05
3.03421e-08
3.08434e-05
4.45605e-08
3.08368e-05
3.51578e-08
3.08317e-05
2.39881e-08
3.08331e-05
2.88684e-08
3.08357e-05
4.04312e-08
3.08353e-05
4.39268e-08
3.08335e-05
4.03179e-08
3.08335e-05
3.69737e-08
3.08358e-05
3.79493e-08
3.08389e-05
4.03632e-08
3.08409e-05
4.09251e-08
3.08417e-05
3.85796e-08
3.55579e-08
3.08428e-05
3.3305e-05
7.08504e-09
3.33008e-05
1.25391e-09
3.33024e-05
8.54694e-09
3.33057e-05
2.9388e-08
3.33014e-05
2.46888e-08
3.32982e-05
1.42545e-08
3.33027e-05
2.5878e-08
3.33061e-05
4.11768e-08
3.33025e-05
3.87526e-08
3.32973e-05
2.91212e-08
3.32971e-05
2.90622e-08
3.33001e-05
3.7426e-08
3.33016e-05
4.24795e-08
3.3301e-05
4.08549e-08
3.33007e-05
3.73308e-08
3.33023e-05
3.63518e-08
3.33051e-05
3.75171e-08
3.33078e-05
3.82538e-08
3.33094e-05
3.69567e-08
3.43607e-08
3.33106e-05
3.59641e-05
6.11836e-09
3.59607e-05
4.6246e-09
3.59608e-05
8.47562e-09
3.59646e-05
2.56179e-08
3.59625e-05
2.6785e-08
3.59585e-05
1.82011e-08
3.59606e-05
2.37578e-08
3.59648e-05
3.70179e-08
3.59641e-05
3.94821e-08
3.59603e-05
3.29204e-08
3.59591e-05
3.02503e-08
3.59615e-05
3.50555e-08
3.59641e-05
3.9881e-08
3.5965e-05
3.99609e-08
3.5965e-05
3.72336e-08
3.59662e-05
3.52037e-08
3.59686e-05
3.51275e-08
3.59714e-05
3.54141e-08
3.59737e-05
3.46974e-08
3.27305e-08
3.59753e-05
3.88353e-05
5.25017e-09
3.8833e-05
6.95468e-09
3.88322e-05
9.31573e-09
3.88354e-05
2.23445e-08
3.88353e-05
2.69539e-08
3.88319e-05
2.15301e-08
3.88323e-05
2.33642e-08
3.88361e-05
3.32893e-08
3.88374e-05
3.80936e-08
3.88356e-05
3.47486e-08
3.88343e-05
3.15483e-08
3.88359e-05
3.34244e-08
3.88388e-05
3.69854e-08
3.88408e-05
3.79551e-08
3.88418e-05
3.62394e-08
3.8843e-05
3.40867e-08
3.88451e-05
3.30291e-08
3.88477e-05
3.27307e-08
3.88503e-05
3.2119e-08
3.06554e-08
3.88524e-05
4.19357e-05
4.56504e-09
4.19344e-05
8.30651e-09
4.19333e-05
1.04281e-08
4.19357e-05
1.98955e-08
4.19368e-05
2.58244e-08
4.19348e-05
2.35375e-08
4.19344e-05
2.3785e-08
4.19373e-05
3.04198e-08
4.19398e-05
3.5526e-08
4.19399e-05
3.46931e-08
4.19393e-05
3.21375e-08
4.19405e-05
3.21813e-08
4.19433e-05
3.42559e-08
4.19459e-05
3.52874e-08
4.19478e-05
3.43667e-08
4.19494e-05
3.25556e-08
4.19513e-05
3.10819e-08
4.19538e-05
3.02134e-08
4.19565e-05
2.94709e-08
2.82826e-08
4.19588e-05
4.52837e-05
4.05719e-09
4.52831e-05
8.87204e-09
4.52822e-05
1.1327e-08
4.52839e-05
1.81658e-08
4.52857e-05
2.40253e-08
4.52852e-05
2.41067e-08
4.52848e-05
2.41372e-08
4.5287e-05
2.82412e-08
4.529e-05
3.25445e-08
4.52915e-05
3.31772e-08
4.5292e-05
3.16196e-08
4.52933e-05
3.09071e-08
4.52958e-05
3.16853e-08
4.52988e-05
3.23609e-08
4.53013e-05
3.18515e-08
4.53034e-05
3.04651e-08
4.53055e-05
2.89841e-08
4.53079e-05
2.78054e-08
4.53105e-05
2.68431e-08
2.57459e-08
4.53131e-05
4.8899e-05
3.67213e-09
4.8899e-05
8.86142e-09
4.88986e-05
1.17431e-08
4.88999e-05
1.68234e-08
4.8902e-05
2.19562e-08
4.89026e-05
2.34596e-08
4.89029e-05
2.38504e-08
4.89048e-05
2.63426e-08
4.89079e-05
2.95062e-08
4.89103e-05
3.06958e-08
4.8912e-05
2.99967e-08
4.89137e-05
2.919e-08
4.89162e-05
2.91494e-08
4.89193e-05
2.93331e-08
4.89222e-05
2.89398e-08
4.89247e-05
2.78807e-08
4.89272e-05
2.65646e-08
4.89297e-05
2.53212e-08
4.89323e-05
2.42223e-08
2.31302e-08
4.89349e-05
5.2803e-05
3.33915e-09
5.28035e-05
8.43602e-09
5.28036e-05
1.15734e-08
5.28049e-05
1.55331e-08
5.28071e-05
1.97538e-08
5.28087e-05
2.18899e-08
5.28099e-05
2.26986e-08
5.28119e-05
2.43061e-08
5.28149e-05
2.64481e-08
5.2818e-05
2.76291e-08
5.28205e-05
2.74683e-08
5.28229e-05
2.68318e-08
5.28256e-05
2.64275e-08
5.28287e-05
2.62144e-08
5.28319e-05
2.57749e-08
5.28349e-05
2.49172e-08
5.28376e-05
2.37975e-08
5.28403e-05
2.26336e-08
5.2843e-05
2.1529e-08
2.04587e-08
5.28457e-05
5.70189e-05
2.99205e-09
5.70196e-05
7.69284e-09
5.70204e-05
1.08199e-08
5.70219e-05
1.40351e-08
5.70242e-05
1.73929e-08
5.70265e-05
1.96068e-08
5.70285e-05
2.06875e-08
5.7031e-05
2.18424e-08
5.70342e-05
2.32446e-08
5.70376e-05
2.41804e-08
5.70408e-05
2.42617e-08
5.70438e-05
2.38259e-08
5.70469e-05
2.33319e-08
5.70503e-05
2.29056e-08
5.70536e-05
2.23972e-08
5.70569e-05
2.16648e-08
5.70599e-05
2.07326e-08
5.70629e-05
1.97148e-08
5.70657e-05
1.86963e-08
1.76959e-08
5.70685e-05
6.15713e-05
2.58109e-09
6.15724e-05
6.66913e-09
6.15737e-05
9.52689e-09
6.15755e-05
1.21665e-08
6.15781e-05
1.47773e-08
6.1581e-05
1.67438e-08
6.15838e-05
1.79076e-08
6.15868e-05
1.88095e-08
6.15903e-05
1.97285e-08
6.15941e-05
2.03901e-08
6.15978e-05
2.05347e-08
6.16014e-05
2.02525e-08
6.1605e-05
1.97973e-08
6.16085e-05
1.93121e-08
6.16122e-05
1.8774e-08
6.16157e-05
1.81236e-08
6.16191e-05
1.73599e-08
6.16223e-05
1.65375e-08
6.16253e-05
1.56997e-08
1.48716e-08
6.16281e-05
6.64873e-05
2.0838e-09
6.64886e-05
5.36223e-09
6.64904e-05
7.74197e-09
6.64927e-05
9.83847e-09
6.64957e-05
1.18071e-08
6.6499e-05
1.33873e-08
6.65025e-05
1.44448e-08
6.65061e-05
1.51843e-08
6.65101e-05
1.57917e-08
6.65142e-05
1.62166e-08
6.65184e-05
1.63403e-08
6.65225e-05
1.61723e-08
6.65265e-05
1.58271e-08
6.65304e-05
1.54026e-08
6.65342e-05
1.49243e-08
6.6538e-05
1.43804e-08
6.65416e-05
1.37655e-08
6.6545e-05
1.30989e-08
6.65483e-05
1.24088e-08
1.17135e-08
6.65515e-05
7.17957e-05
1.49815e-09
7.17973e-05
3.80593e-09
7.17995e-05
5.52837e-09
7.18023e-05
7.04775e-09
7.18057e-05
8.43804e-09
7.18095e-05
9.58272e-09
7.18135e-05
1.04031e-08
7.18177e-05
1.09696e-08
7.18222e-05
1.13775e-08
7.18267e-05
1.16385e-08
7.18314e-05
1.17195e-08
7.18359e-05
1.16227e-08
7.18403e-05
1.13959e-08
7.18446e-05
1.10926e-08
7.18488e-05
1.07406e-08
7.18529e-05
1.03468e-08
7.18567e-05
9.913e-09
7.18604e-05
9.44729e-09
7.18638e-05
8.96238e-09
8.47457e-09
7.1867e-05
7.75282e-05
7.75301e-05
7.75328e-05
7.75361e-05
7.754e-05
7.75443e-05
7.7549e-05
7.75538e-05
7.75588e-05
7.75639e-05
7.7569e-05
7.7574e-05
7.75789e-05
7.75836e-05
7.75882e-05
7.75926e-05
7.75968e-05
7.76008e-05
7.76045e-05
7.76081e-05
3.77101e-06
6.54236e-08
3.67739e-06
9.36224e-08
3.57877e-06
9.86213e-08
3.48336e-06
9.54053e-08
3.3888e-06
9.45646e-08
3.29282e-06
9.59754e-08
3.19474e-06
9.80831e-08
3.0934e-06
1.01335e-07
2.98864e-06
1.04762e-07
2.87991e-06
1.08734e-07
2.76664e-06
1.13267e-07
2.65087e-06
1.15773e-07
2.53538e-06
1.15489e-07
2.4213e-06
1.14072e-07
2.30863e-06
1.12678e-07
2.1954e-06
1.13229e-07
2.07869e-06
1.16706e-07
1.95779e-06
1.20903e-07
1.83587e-06
1.21919e-07
1.71686e-06
1.19005e-07
1.60031e-06
1.16556e-07
1.48593e-06
1.14375e-07
1.37694e-06
1.08996e-07
1.27589e-06
1.01048e-07
1.18727e-06
8.8623e-08
1.11684e-06
7.043e-08
1.0649e-06
5.19305e-08
1.02897e-06
3.59341e-08
1.00743e-06
2.15401e-08
9.97119e-07
1.03113e-08
9.94545e-07
2.57373e-09
9.97869e-07
-3.32332e-09
1.00417e-06
-6.30017e-09
1.00976e-06
-5.58637e-09
1.01305e-06
-3.29708e-09
1.01294e-06
1.0848e-10
1.00879e-06
4.14974e-09
1.00344e-06
5.35213e-09
1.00111e-06
2.33443e-09
1.00186e-06
-7.51492e-10
1.00264e-06
-7.84002e-10
1.00223e-06
4.12293e-10
1.00179e-06
4.37501e-10
1.00215e-06
-3.59297e-10
1.00294e-06
-7.84751e-10
1.00373e-06
-7.94436e-10
1.00458e-06
-8.44113e-10
1.00557e-06
-9.94364e-10
1.00661e-06
-1.04206e-09
1.00756e-06
-9.50271e-10
1.00835e-06
-7.84772e-10
1.00895e-06
-6.05086e-10
1.00939e-06
-4.36897e-10
1.00969e-06
-2.95712e-10
1.00988e-06
-1.91069e-10
1.01e-06
-1.2069e-10
1.01007e-06
-7.68058e-11
1.01012e-06
-5.0789e-11
1.01016e-06
-3.61072e-11
1.01019e-06
-2.78342e-11
1.01021e-06
-2.31063e-11
1.01023e-06
-1.98147e-11
1.01025e-06
-1.76911e-11
1.01026e-06
-1.53708e-11
1.01028e-06
-1.41031e-11
1.01029e-06
-1.15555e-11
1.0103e-06
-1.12098e-11
1.01031e-06
-7.9313e-12
1.01032e-06
-9.38549e-12
1.01032e-06
-4.35328e-12
1.01033e-06
-8.95515e-12
1.01033e-06
-2.41735e-13
1.01034e-06
-1.02326e-11
1.01034e-06
4.88135e-12
1.01035e-06
-1.35396e-11
1.01034e-06
1.1125e-11
1.01036e-06
-1.82349e-11
1.01034e-06
1.73789e-11
1.01036e-06
-2.19613e-11
1.01034e-06
2.00658e-11
1.01036e-06
-1.97022e-11
1.01035e-06
1.33468e-11
1.01035e-06
-5.22452e-12
1.01036e-06
-7.50351e-12
1.01034e-06
2.27893e-11
1.01038e-06
-3.75856e-11
1.01032e-06
5.18851e-11
1.01038e-06
-5.5697e-11
1.01032e-06
5.63556e-11
1.01036e-06
-3.61276e-11
1.01034e-06
2.45158e-11
1.01032e-06
1.53105e-11
1.01032e-06
-2.36039e-12
1.01028e-06
4.71385e-11
1.01022e-06
5.09991e-11
1.01019e-06
3.88118e-11
1.00999e-06
1.9564e-10
1.00992e-06
6.82666e-11
1.00958e-06
3.37481e-10
1.27518e-09
4.16078e-06
5.95179e-08
4.16663e-06
8.77694e-08
4.16184e-06
1.03413e-07
4.15344e-06
1.03803e-07
4.14514e-06
1.02863e-07
4.13547e-06
1.0565e-07
4.12342e-06
1.10135e-07
4.10772e-06
1.17029e-07
4.0882e-06
1.24282e-07
4.0648e-06
1.3214e-07
4.0366e-06
1.4147e-07
4.00428e-06
1.48093e-07
3.96867e-06
1.51096e-07
3.93044e-06
1.52304e-07
3.8899e-06
1.53213e-07
3.84637e-06
1.56765e-07
3.7992e-06
1.63874e-07
3.74741e-06
1.72694e-07
3.69182e-06
1.77511e-07
3.6339e-06
1.76923e-07
3.57223e-06
1.78221e-07
3.50712e-06
1.79494e-07
3.44001e-06
1.76104e-07
3.37117e-06
1.6989e-07
3.30429e-06
1.55502e-07
3.243e-06
1.31721e-07
3.18768e-06
1.07249e-07
3.13946e-06
8.41523e-08
3.09868e-06
6.23229e-08
3.06338e-06
4.56119e-08
3.03329e-06
3.26569e-08
3.00878e-06
2.11882e-08
2.98762e-06
1.48655e-08
2.96814e-06
1.38912e-08
2.95033e-06
1.45112e-08
2.93278e-06
1.76565e-08
2.91396e-06
2.29755e-08
2.89586e-06
2.3447e-08
2.88142e-06
1.6773e-08
2.87049e-06
1.01785e-08
2.86119e-06
8.51642e-09
2.85299e-06
8.61128e-09
2.84651e-06
6.92185e-09
2.84188e-06
4.2722e-09
2.83876e-06
2.33681e-09
2.83709e-06
8.6811e-10
2.83712e-06
-8.66279e-10
2.83886e-06
-2.73335e-09
2.84193e-06
-4.1128e-09
2.84573e-06
-4.7523e-09
2.84965e-06
-4.70349e-09
2.8532e-06
-4.15975e-09
2.85611e-06
-3.34623e-09
2.85829e-06
-2.47891e-09
2.85981e-06
-1.71151e-09
2.86081e-06
-1.11348e-09
2.86142e-06
-6.90925e-10
2.86179e-06
-4.15209e-10
2.862e-06
-2.47508e-10
2.86212e-06
-1.51032e-10
2.8622e-06
-9.7866e-11
2.86224e-06
-6.86012e-11
2.86228e-06
-5.25859e-11
2.86231e-06
-4.21668e-11
2.86233e-06
-3.59905e-11
2.86235e-06
-2.93951e-11
2.86236e-06
-2.65249e-11
2.86237e-06
-2.00765e-11
2.86238e-06
-2.04472e-11
2.86239e-06
-1.2155e-11
2.8624e-06
-1.73528e-11
2.8624e-06
-4.32839e-12
2.86241e-06
-1.73911e-11
2.86241e-06
4.32629e-12
2.86242e-06
-2.09394e-11
2.86242e-06
1.42674e-11
2.86243e-06
-2.70974e-11
2.86242e-06
2.4384e-11
2.86243e-06
-3.28324e-11
2.86242e-06
3.01548e-11
2.86243e-06
-3.14012e-11
2.86242e-06
2.36596e-11
2.86243e-06
-1.34793e-11
2.86242e-06
-3.32979e-12
2.86242e-06
2.63565e-11
2.86243e-06
-4.97928e-11
2.86241e-06
7.92524e-11
2.86245e-06
-9.52155e-11
2.86239e-06
1.1588e-10
2.86245e-06
-1.00159e-10
2.86237e-06
1.02149e-10
2.86242e-06
-3.54722e-11
2.86236e-06
5.62054e-11
2.86236e-06
5.56963e-11
2.86229e-06
1.12068e-10
2.86225e-06
8.45681e-11
2.86208e-06
3.67153e-10
2.86195e-06
1.99199e-10
2.86175e-06
5.3202e-10
2.21254e-09
4.49417e-06
5.83843e-08
4.50195e-06
7.99872e-08
4.50604e-06
9.93186e-08
4.50621e-06
1.03633e-07
4.50607e-06
1.03005e-07
4.5066e-06
1.05118e-07
4.50756e-06
1.09179e-07
4.50831e-06
1.16281e-07
4.50831e-06
1.24279e-07
4.50757e-06
1.32883e-07
4.50554e-06
1.43492e-07
4.50217e-06
1.5147e-07
4.49732e-06
1.55944e-07
4.49098e-06
1.58638e-07
4.48343e-06
1.60766e-07
4.47457e-06
1.65623e-07
4.46499e-06
1.73458e-07
4.45476e-06
1.82922e-07
4.44318e-06
1.8909e-07
4.43025e-06
1.89855e-07
4.4155e-06
1.92971e-07
4.3987e-06
1.96289e-07
4.3801e-06
1.94709e-07
4.3591e-06
1.90893e-07
4.33633e-06
1.78268e-07
4.31322e-06
1.54826e-07
4.29052e-06
1.29958e-07
4.26957e-06
1.05102e-07
4.25106e-06
8.08311e-08
4.23389e-06
6.27798e-08
4.21783e-06
4.87204e-08
4.20344e-06
3.55741e-08
4.19013e-06
2.81747e-08
4.17737e-06
2.66503e-08
4.16553e-06
2.63481e-08
4.15408e-06
2.91086e-08
4.14209e-06
3.49646e-08
4.13033e-06
3.52102e-08
4.12016e-06
2.6946e-08
4.11152e-06
1.88205e-08
4.10363e-06
1.64044e-08
4.09644e-06
1.57956e-08
4.09035e-06
1.30141e-08
4.08541e-06
9.21184e-09
4.08148e-06
6.26794e-09
4.0786e-06
3.74461e-09
4.07695e-06
7.85182e-10
4.07656e-06
-2.34167e-09
4.07726e-06
-4.81651e-09
4.07884e-06
-6.33035e-09
4.08108e-06
-6.93644e-09
4.08375e-06
-6.8362e-09
4.08664e-06
-6.23889e-09
4.08951e-06
-5.34457e-09
4.09212e-06
-4.32259e-09
4.09431e-06
-3.30257e-09
4.096e-06
-2.38163e-09
4.09721e-06
-1.62088e-09
4.098e-06
-1.04427e-09
4.09849e-06
-6.41357e-10
4.09878e-06
-3.80589e-10
4.09893e-06
-2.22726e-10
4.09901e-06
-1.32972e-10
4.09905e-06
-8.30975e-11
4.09907e-06
-5.66644e-11
4.09908e-06
-4.01014e-11
4.09909e-06
-3.19345e-11
4.09909e-06
-2.30347e-11
4.09909e-06
-2.13871e-11
4.09909e-06
-1.26758e-11
4.09909e-06
-1.63071e-11
4.09909e-06
-4.00136e-12
4.09909e-06
-1.50612e-11
4.09909e-06
4.63483e-12
4.09909e-06
-1.76142e-11
4.09909e-06
1.39902e-11
4.09908e-06
-2.29375e-11
4.09908e-06
2.34094e-11
4.09908e-06
-2.83103e-11
4.09908e-06
2.90121e-11
4.09908e-06
-2.74946e-11
4.09908e-06
2.33557e-11
4.09907e-06
-1.07198e-11
4.09907e-06
-3.42997e-12
4.09907e-06
3.1228e-11
4.09907e-06
-5.62209e-11
4.09906e-06
9.70949e-11
4.09908e-06
-1.20455e-10
4.09904e-06
1.58241e-10
4.09909e-06
-1.45249e-10
4.09903e-06
1.56823e-10
4.09906e-06
-6.54321e-11
4.09903e-06
8.59013e-11
4.09901e-06
8.12866e-11
4.09899e-06
1.29256e-10
4.09892e-06
1.50735e-10
4.09885e-06
4.34298e-10
4.09869e-06
3.60838e-10
4.09864e-06
5.83029e-10
2.62154e-09
4.8547e-06
5.88236e-08
4.86033e-06
7.43516e-08
4.86584e-06
9.3809e-08
4.86776e-06
1.0172e-07
4.86793e-06
1.0283e-07
4.86831e-06
1.04744e-07
4.8691e-06
1.0838e-07
4.87066e-06
1.1472e-07
4.87259e-06
1.22356e-07
4.87471e-06
1.30758e-07
4.87678e-06
1.41425e-07
4.87855e-06
1.49697e-07
4.8799e-06
1.546e-07
4.88065e-06
1.57881e-07
4.8809e-06
1.60525e-07
4.88076e-06
1.65762e-07
4.88079e-06
1.73421e-07
4.88159e-06
1.82125e-07
4.88252e-06
1.88159e-07
4.88299e-06
1.8939e-07
4.88333e-06
1.92631e-07
4.88351e-06
1.9611e-07
4.88324e-06
1.94979e-07
4.88207e-06
1.92059e-07
4.87931e-06
1.81023e-07
4.87475e-06
1.59393e-07
4.86891e-06
1.35791e-07
4.86287e-06
1.11142e-07
4.85725e-06
8.64587e-08
4.85173e-06
6.82957e-08
4.84603e-06
5.44253e-08
4.84035e-06
4.12545e-08
4.83483e-06
3.36874e-08
4.82958e-06
3.1905e-08
4.82485e-06
3.10733e-08
4.82065e-06
3.33116e-08
4.81663e-06
3.89804e-08
4.8127e-06
3.91466e-08
4.80897e-06
3.06686e-08
4.80549e-06
2.23072e-08
4.8022e-06
1.96915e-08
4.7992e-06
1.87942e-08
4.79659e-06
1.56303e-08
4.79434e-06
1.14615e-08
4.79243e-06
8.1764e-09
4.79091e-06
5.2648e-09
4.78983e-06
1.85884e-09
4.7892e-06
-1.70661e-09
4.78897e-06
-4.58718e-09
4.78911e-06
-6.46718e-09
4.78959e-06
-7.41829e-09
4.7904e-06
-7.64332e-09
4.79148e-06
-7.32494e-09
4.79275e-06
-6.6178e-09
4.79409e-06
-5.6552e-09
4.79535e-06
-4.56138e-09
4.79643e-06
-3.46183e-09
4.79727e-06
-2.46756e-09
4.79788e-06
-1.65322e-09
4.79829e-06
-1.04444e-09
4.79853e-06
-6.26085e-10
4.79867e-06
-3.59448e-10
4.79874e-06
-2.00913e-10
4.79876e-06
-1.11093e-10
4.79877e-06
-6.28987e-11
4.79877e-06
-3.56737e-11
4.79876e-06
-2.22772e-11
4.79874e-06
-1.19304e-11
4.79873e-06
-9.20106e-12
4.79872e-06
-1.77677e-12
4.79871e-06
-4.56667e-12
4.7987e-06
4.90203e-12
4.79869e-06
-3.99055e-12
4.79868e-06
1.07773e-11
4.79867e-06
-6.63486e-12
4.79867e-06
1.67067e-11
4.79866e-06
-1.11471e-11
4.79866e-06
2.21466e-11
4.79865e-06
-1.49394e-11
4.79865e-06
2.36955e-11
4.79864e-06
-1.24954e-11
4.79864e-06
1.4923e-11
4.79863e-06
4.96661e-12
4.79864e-06
-1.32827e-11
4.79862e-06
4.65675e-11
4.79863e-06
-6.65441e-11
4.79862e-06
1.12712e-10
4.79863e-06
-1.31646e-10
4.79861e-06
1.74775e-10
4.79862e-06
-1.53697e-10
4.79861e-06
1.68144e-10
4.7986e-06
-5.74077e-11
4.7986e-06
8.32013e-11
4.79857e-06
1.17508e-10
4.79857e-06
1.24712e-10
4.7985e-06
2.19445e-10
4.7985e-06
4.38872e-10
4.79834e-06
5.18824e-10
4.79836e-06
5.63018e-10
2.72135e-09
5.24399e-06
5.9474e-08
5.2481e-06
7.02439e-08
5.2534e-06
8.85043e-08
5.25641e-06
9.87111e-08
5.25747e-06
1.01772e-07
5.25774e-06
1.04467e-07
5.25795e-06
1.08179e-07
5.25899e-06
1.13678e-07
5.26086e-06
1.20481e-07
5.26328e-06
1.28342e-07
5.26593e-06
1.3877e-07
5.2685e-06
1.47128e-07
5.27091e-06
1.5219e-07
5.273e-06
1.55794e-07
5.27467e-06
1.58853e-07
5.27619e-06
1.64247e-07
5.27802e-06
1.7159e-07
5.2807e-06
1.79444e-07
5.28388e-06
1.84977e-07
5.28676e-06
1.86511e-07
5.28979e-06
1.89594e-07
5.2934e-06
1.92509e-07
5.29715e-06