/*--------------------------------*- C++ -*----------------------------------*\
| =========                 |                                                 |
| \\      /  F ield         | OpenFOAM: The Open Source CFD Toolbox           |
|  \\    /   O peration     | Version:  v1906                                 |
|   \\  /    A nd           | Web:      www.OpenFOAM.com                      |
|    \\/     M anipulation  |                                                 |
\*---------------------------------------------------------------------------*/
FoamFile
{
    version     2.0;
    format      ascii;
    class       volVectorField;
    location    "0.2";
    object      U;
}
// * * * * * * * * * * * * * * * * * * * * * * * * * * * * * * * * * * * * * //

dimensions      [0 1 -1 0 0 0 0];


internalField   nonuniform List<vector> 
4800
(
(0.960012 0.000764387 0)
(1.03907 -0.00127029 0)
(0.964562 -0.000505646 0)
(1.03652 -0.000137571 0)
(0.965938 0.0025059 0)
(1.02771 0.00177673 0)
(0.966424 0.00161973 0)
(1.02466 -0.00157915 0)
(0.971569 -0.00196582 0)
(1.02494 -0.00406618 0)
(0.97664 -0.00320014 0)
(1.02387 -0.0025501 0)
(0.981243 -0.000459513 0)
(1.02156 -0.00018119 0)
(0.982043 0.00169367 0)
(1.01717 0.00157385 0)
(0.982938 0.0025736 0)
(1.01374 0.00168547 0)
(0.983269 0.0022482 0)
(1.00997 0.00158684 0)
(0.982501 0.000705029 0)
(1.01486 -0.00125906 0)
(0.986356 -0.000596912 0)
(1.01172 2.56084e-05 0)
(0.988403 0.00263265 0)
(1.00557 0.00194714 0)
(0.990503 0.00160993 0)
(1.00392 -0.00164284 0)
(0.993167 -0.00221139 0)
(1.00268 -0.00427005 0)
(0.994146 -0.00332036 0)
(1.00146 -0.00268205 0)
(0.996556 -0.000477425 0)
(1.00098 -0.00013952 0)
(0.996615 0.00189697 0)
(0.999324 0.00169492 0)
(0.997 0.00274099 0)
(0.998386 0.00190385 0)
(0.996778 0.00281922 0)
(0.996835 0.00253026 0)
(0.996081 0.000752728 0)
(1.00314 -0.00125526 0)
(0.996711 -0.00052528 0)
(1.00099 -5.72269e-06 0)
(0.997156 0.00259844 0)
(0.999912 0.00191524 0)
(0.999208 0.00152958 0)
(1.00133 -0.00144979 0)
(0.999529 -0.00229512 0)
(0.998885 -0.00390613 0)
(0.99669 -0.00345711 0)
(0.996618 -0.00236191 0)
(0.996681 -0.000830987 0)
(0.996688 0.000216993 0)
(0.99623 0.00141865 0)
(0.996684 0.00196688 0)
(0.997066 0.00240644 0)
(0.997372 0.00239491 0)
(0.997294 0.0028654 0)
(0.997178 0.00318146 0)
(0.999772 0.000730172 0)
(1.00079 -0.00125488 0)
(0.998859 -0.000488824 0)
(0.998965 1.95979e-05 0)
(0.998893 0.00256153 0)
(1.00002 0.00185847 0)
(1.00143 0.00146349 0)
(1.00233 -0.00140023 0)
(1.0011 -0.00226862 0)
(0.999056 -0.00369758 0)
(0.996877 -0.00345709 0)
(0.995826 -0.00214229 0)
(0.995863 -0.000934981 0)
(0.995531 0.000317651 0)
(0.995314 0.00128694 0)
(0.995899 0.00203202 0)
(0.99661 0.00243241 0)
(0.997121 0.0026002 0)
(0.997321 0.00302526 0)
(0.997309 0.00327326 0)
(1.00036 0.000680413 0)
(1.00053 -0.00114848 0)
(0.999125 -0.000474006 0)
(0.99879 0.000107949 0)
(0.999207 0.00235819 0)
(1.00028 0.00185379 0)
(1.00187 0.00124674 0)
(1.00267 -0.00116897 0)
(1.00143 -0.0023147 0)
(0.999235 -0.00327619 0)
(0.997003 -0.00337502 0)
(0.99579 -0.00192236 0)
(0.995709 -0.00095234 0)
(0.995316 0.000287523 0)
(0.995072 0.00129653 0)
(0.995678 0.00197073 0)
(0.996463 0.00243762 0)
(0.99705 0.00272349 0)
(0.997322 0.00298809 0)
(0.997338 0.00330629 0)
(1.00041 0.000653224 0)
(1.0005 -0.00110826 0)
(0.999179 -0.000443902 0)
(0.99886 0.000144409 0)
(0.999306 0.00219924 0)
(1.00031 0.00183073 0)
(1.00184 0.00108587 0)
(1.0026 -0.000981077 0)
(1.00141 -0.00229798 0)
(0.999234 -0.00297763 0)
(0.997117 -0.00324077 0)
(0.995941 -0.00178898 0)
(0.995808 -0.000855074 0)
(0.99542 0.000223802 0)
(0.995144 0.00128631 0)
(0.995724 0.00196028 0)
(0.996499 0.00250337 0)
(0.997072 0.00276208 0)
(0.997373 0.00296389 0)
(0.997389 0.00333268 0)
(1.0004 0.000598195 0)
(1.00047 -0.00102881 0)
(0.99923 -0.000428667 0)
(0.998961 0.000224808 0)
(0.999376 0.00200784 0)
(1.00027 0.00181658 0)
(1.00172 0.000900381 0)
(1.00244 -0.00081322 0)
(1.00132 -0.00222912 0)
(0.999208 -0.00274652 0)
(0.997217 -0.00293482 0)
(0.996127 -0.0017464 0)
(0.995979 -0.000694861 0)
(0.995609 0.00024719 0)
(0.995314 0.00128179 0)
(0.995851 0.00195936 0)
(0.996586 0.00249019 0)
(0.99713 0.00279742 0)
(0.997456 0.00298511 0)
(0.997468 0.00330366 0)
(1.00039 0.000550372 0)
(1.00044 -0.00093705 0)
(0.999285 -0.000435257 0)
(0.999062 0.000306715 0)
(0.999443 0.00180766 0)
(1.00022 0.00180491 0)
(1.00158 0.000754027 0)
(1.00228 -0.000689838 0)
(1.00121 -0.00206941 0)
(0.999178 -0.00257934 0)
(0.997304 -0.00263849 0)
(0.996323 -0.00167268 0)
(0.996174 -0.000587235 0)
(0.995808 0.000308032 0)
(0.995506 0.00128532 0)
(0.996008 0.00193158 0)
(0.996718 0.002457 0)
(0.997223 0.00284918 0)
(0.997541 0.00300671 0)
(0.997557 0.00324336 0)
(1.00037 0.00049549 0)
(1.00042 -0.000841213 0)
(0.999343 -0.000449642 0)
(0.999165 0.000401031 0)
(0.999513 0.00161761 0)
(1.00016 0.00177961 0)
(1.00145 0.000635375 0)
(1.00212 -0.000642662 0)
(1.0011 -0.00187097 0)
(0.999162 -0.00244674 0)
(0.997402 -0.0023392 0)
(0.996515 -0.00150827 0)
(0.996386 -0.00053856 0)
(0.996029 0.000389123 0)
(0.995708 0.00135065 0)
(0.99617 0.0019329 0)
(0.996861 0.00241104 0)
(0.997319 0.00282626 0)
(0.997614 0.00299326 0)
(0.997655 0.00316345 0)
(1.00036 0.000436567 0)
(1.00039 -0.000729134 0)
(0.999405 -0.000473101 0)
(0.999265 0.000485938 0)
(0.999581 0.00142739 0)
(1.00011 0.00171373 0)
(1.0013 0.000587533 0)
(1.00197 -0.000635461 0)
(1.00099 -0.00162614 0)
(0.999146 -0.00225746 0)
(0.997509 -0.00212514 0)
(0.996699 -0.00130021 0)
(0.9966 -0.0004855 0)
(0.996268 0.000400909 0)
(0.995917 0.00138786 0)
(0.996328 0.00195174 0)
(0.997016 0.002353 0)
(0.997444 0.00278181 0)
(0.997697 0.00299824 0)
(0.997756 0.00309534 0)
(1.00034 0.000376096 0)
(1.00035 -0.000611455 0)
(0.999469 -0.000508217 0)
(0.999365 0.000560786 0)
(0.999649 0.00128499 0)
(1.00006 0.00161291 0)
(1.00115 0.000589056 0)
(1.00183 -0.00065782 0)
(1.00088 -0.0014275 0)
(0.999123 -0.00201498 0)
(0.997629 -0.00195949 0)
(0.996891 -0.00108042 0)
(0.996806 -0.000354533 0)
(0.996525 0.0004043 0)
(0.996156 0.00139343 0)
(0.99649 0.00200379 0)
(0.997166 0.0023327 0)
(0.99758 0.00271386 0)
(0.997773 0.00297597 0)
(0.997837 0.00304273 0)
(1.00033 0.000309561 0)
(1.00031 -0.000482539 0)
(0.999533 -0.000534728 0)
(0.999464 0.000607496 0)
(0.999708 0.00117619 0)
(1.00002 0.00146352 0)
(1.001 0.000616465 0)
(1.00169 -0.000660976 0)
(1.0008 -0.00127711 0)
(0.999099 -0.0017173 0)
(0.997751 -0.00176718 0)
(0.997098 -0.000928369 0)
(0.997005 -0.000164249 0)
(0.996774 0.000464655 0)
(0.996415 0.00134313 0)
(0.996667 0.00200209 0)
(0.997306 0.00232485 0)
(0.997727 0.00263671 0)
(0.997877 0.00293618 0)
(0.997908 0.00304281 0)
(1.00031 0.000244933 0)
(1.00027 -0.000353505 0)
(0.999594 -0.00055574 0)
(0.999566 0.000606071 0)
(0.99976 0.00112155 0)
(0.999987 0.00129599 0)
(1.00085 0.000659713 0)
(1.00155 -0.000605078 0)
(1.00074 -0.00119214 0)
(0.99908 -0.00141975 0)
(0.99786 -0.00153083 0)
(0.997324 -0.000826102 0)
(0.997221 1.56147e-05 0)
(0.997006 0.000591537 0)
(0.996677 0.00131814 0)
(0.996871 0.00195421 0)
(0.997453 0.00230725 0)
(0.997875 0.00259352 0)
(0.997999 0.00286117 0)
(0.997974 0.00302735 0)
(1.0003 0.000178902 0)
(1.00022 -0.000230642 0)
(0.999649 -0.000551342 0)
(0.999672 0.000559445 0)
(0.999802 0.00110912 0)
(0.999954 0.00112162 0)
(1.00071 0.000668379 0)
(1.0014 -0.000486545 0)
(1.00069 -0.00112323 0)
(0.999084 -0.00116931 0)
(0.997956 -0.00121663 0)
(0.997553 -0.000718858 0)
(0.997459 0.000117079 0)
(0.997233 0.000735247 0)
(0.996924 0.00135013 0)
(0.99708 0.00189606 0)
(0.997618 0.00224795 0)
(0.998023 0.00253588 0)
(0.998134 0.0027738 0)
(0.998065 0.00297328 0)
(1.00028 0.00011797 0)
(1.00017 -0.00011928 0)
(0.999691 -0.000517358 0)
(0.999781 0.000461931 0)
(0.999836 0.00110864 0)
(0.999917 0.000978068 0)
(1.00058 0.000632577 0)
(1.00124 -0.000330071 0)
(1.00064 -0.00102874 0)
(0.999118 -0.000995332 0)
(0.998043 -0.000894668 0)
(0.997757 -0.000562997 0)
(0.997721 0.00015765 0)
(0.997478 0.000822777 0)
(0.997157 0.00140991 0)
(0.997283 0.00188667 0)
(0.997789 0.00218104 0)
(0.998181 0.00244789 0)
(0.998279 0.00270153 0)
(0.998181 0.00288869 0)
(1.00026 6.34335e-05 0)
(1.00012 -3.02595e-05 0)
(0.999716 -0.000446563 0)
(0.999892 0.000334106 0)
(0.999868 0.0011044 0)
(0.999869 0.00089709 0)
(1.00047 0.000548842 0)
(1.00109 -0.000179336 0)
(1.00059 -0.000872189 0)
(0.999177 -0.000870921 0)
(0.998143 -0.000617191 0)
(0.997937 -0.000333663 0)
(0.997975 0.000207584 0)
(0.997746 0.000842627 0)
(0.997403 0.00144939 0)
(0.997471 0.00189555 0)
(0.997944 0.00214331 0)
(0.998349 0.00236246 0)
(0.998436 0.00260942 0)
(0.998313 0.0027929 0)
(1.00025 1.91114e-05 0)
(1.00007 3.35994e-05 0)
(0.999722 -0.000340368 0)
(1 0.000193309 0)
(0.999907 0.00106231 0)
(0.999803 0.000883267 0)
(1.00037 0.000446924 0)
(1.00095 -6.23895e-05 0)
(1.00053 -0.000650626 0)
(0.999246 -0.000744538 0)
(0.998268 -0.000416838 0)
(0.998095 -7.52871e-05 0)
(0.998204 0.000325203 0)
(0.998023 0.000848866 0)
(0.997664 0.00143174 0)
(0.997668 0.0018892 0)
(0.998093 0.00214337 0)
(0.998501 0.0023074 0)
(0.998596 0.00250581 0)
(0.998462 0.00270674 0)
(1.00023 -1.39656e-05 0)
(1.00003 6.67724e-05 0)
(0.999708 -0.000206978 0)
(1.0001 6.21277e-05 0)
(0.999959 0.000962454 0)
(0.999725 0.000918381 0)
(1.00026 0.000372658 0)
(1.00085 -1.92578e-05 0)
(1.00046 -0.00041717 0)
(0.999303 -0.000569889 0)
(0.99842 -0.000284535 0)
(0.998266 0.000137537 0)
(0.998398 0.000503323 0)
(0.998274 0.000893242 0)
(0.99794 0.00138479 0)
(0.99789 0.00184337 0)
(0.99824 0.00212308 0)
(0.998631 0.00227697 0)
(0.998756 0.00244022 0)
(0.998616 0.00262593 0)
(1.0002 -3.20446e-05 0)
(0.99999 6.36241e-05 0)
(0.999676 -5.80752e-05 0)
(1.00017 -3.56642e-05 0)
(1.00003 0.000806009 0)
(0.999644 0.000973026 0)
(1.00014 0.000359324 0)
(1.00076 -3.09759e-05 0)
(1.00041 -0.00021503 0)
(0.999343 -0.000333158 0)
(0.998571 -0.000164876 0)
(0.998456 0.000255118 0)
(0.998584 0.000663483 0)
(0.998487 0.000995674 0)
(0.998194 0.00136578 0)
(0.998126 0.0017584 0)
(0.998414 0.00206294 0)
(0.998773 0.00224986 0)
(0.998902 0.00239961 0)
(0.998755 0.00256091 0)
(1.00018 -3.43169e-05 0)
(0.999966 3.03315e-05 0)
(0.999633 9.49198e-05 0)
(1.00022 -8.29153e-05 0)
(1.00012 0.000606799 0)
(0.999576 0.0010081 0)
(0.999987 0.000427899 0)
(1.00069 -5.5083e-05 0)
(1.00039 -8.93084e-05 0)
(0.999367 -7.78795e-05 0)
(0.998694 -9.08786e-06 0)
(0.998661 0.00031465 0)
(0.99879 0.00075292 0)
(0.99868 0.0011129 0)
(0.998408 0.00140737 0)
(0.998354 0.00169617 0)
(0.998612 0.00196945 0)
(0.998927 0.00218425 0)
(0.999051 0.00234659 0)
(0.998892 0.00252116 0)
(1.00015 -2.24683e-05 0)
(0.999958 -2.25818e-05 0)
(0.999588 0.000227483 0)
(1.00023 -7.10312e-05 0)
(1.00022 0.000395022 0)
(0.999542 0.000986874 0)
(0.999815 0.000557342 0)
(1.00061 -4.81681e-05 0)
(1.00042 -4.2881e-05 0)
(0.999408 0.000157985 0)
(0.998778 0.000214918 0)
(0.998842 0.000381111 0)
(0.999021 0.000763414 0)
(0.998889 0.00118252 0)
(0.998588 0.00148796 0)
(0.998535 0.00168499 0)
(0.998803 0.00187313 0)
(0.999111 0.00208688 0)
(0.999232 0.002265 0)
(0.999058 0.00246483 0)
(1.00013 -6.23021e-07 0)
(0.999964 -8.11826e-05 0)
(0.999552 0.00031993 0)
(1.0002 3.86328e-07 0)
(1.00032 0.000200425 0)
(0.999555 0.000894383 0)
(0.999638 0.000709829 0)
(1.00049 3.10367e-05 0)
(1.00048 -4.48094e-05 0)
(0.999492 0.000316031 0)
(0.998829 0.000467908 0)
(0.998967 0.00050414 0)
(0.999251 0.000753529 0)
(0.999139 0.0011682 0)
(0.998771 0.00154536 0)
(0.998669 0.00173239 0)
(0.998961 0.00182595 0)
(0.999291 0.00198325 0)
(0.99943 0.00215708 0)
(0.999277 0.00235928 0)
(1.0001 2.56758e-05 0)
(0.999982 -0.000131809 0)
(0.999537 0.000361077 0)
(1.00013 0.000114934 0)
(1.0004 5.60032e-05 0)
(0.999623 0.000738189 0)
(0.999485 0.000842084 0)
(1.00033 0.000185056 0)
(1.00053 -4.62346e-05 0)
(0.999638 0.000361364 0)
(0.998893 0.000681679 0)
(0.999028 0.000685568 0)
(0.999432 0.000773211 0)
(0.999411 0.00110084 0)
(0.999005 0.00152584 0)
(0.998787 0.00178707 0)
(0.999052 0.00183864 0)
(0.999442 0.00189935 0)
(0.999627 0.00205526 0)
(0.999534 0.00221954 0)
(1.00007 5.1196e-05 0)
(1.00001 -0.000163225 0)
(0.999548 0.000352034 0)
(1.00004 0.000240275 0)
(1.00044 -1.27269e-05 0)
(0.999738 0.000549903 0)
(0.999387 0.000902836 0)
(1.00013 0.000389065 0)
(1.00055 3.67765e-06 0)
(0.999829 0.000338811 0)
(0.999006 0.000806256 0)
(0.999049 0.00088436 0)
(0.999537 0.000854763 0)
(0.999664 0.00104385 0)
(0.999291 0.00143693 0)
(0.99895 0.00178219 0)
(0.999102 0.00188382 0)
(0.999535 0.00187378 0)
(0.999788 0.00196637 0)
(0.999777 0.00209296 0)
(1.00005 7.1964e-05 0)
(1.00003 -0.000168256 0)
(0.999587 0.000306172 0)
(0.999953 0.000350214 0)
(1.00044 -7.38061e-06 0)
(0.999875 0.000371182 0)
(0.999362 0.000873886 0)
(0.999922 0.000597613 0)
(1.0005 0.000129195 0)
(1.00003 0.000302844 0)
(0.999189 0.0008265 0)
(0.999077 0.00104245 0)
(0.999565 0.0009859 0)
(0.999848 0.00103394 0)
(0.999595 0.0013265 0)
(0.999186 0.00170098 0)
(0.999171 0.00189732 0)
(0.999563 0.00189084 0)
(0.999895 0.00190633 0)
(0.999976 0.00200393 0)
(1.00003 8.44969e-05 0)
(1.00005 -0.000146721 0)
(0.999649 0.000242662 0)
(0.999878 0.00042447 0)
(1.00039 5.87469e-05 0)
(1.00001 0.000235138 0)
(0.999416 0.000779658 0)
(0.999754 0.000752491 0)
(1.00039 0.000311936 0)
(1.00019 0.000301896 0)
(0.999429 0.000776129 0)
(0.999156 0.00111897 0)
(0.999553 0.00111862 0)
(0.999946 0.00108174 0)
(0.999859 0.0012472 0)
(0.999477 0.00157408 0)
(0.99931 0.00184198 0)
(0.999576 0.00190328 0)
(0.999948 0.00188426 0)
(1.00011 0.00194038 0)
(1.00001 8.83056e-05 0)
(1.00006 -0.000105744 0)
(0.999725 0.000179946 0)
(0.999828 0.00045171 0)
(1.00032 0.000158338 0)
(1.00011 0.000162505 0)
(0.999529 0.000655721 0)
(0.999651 0.000825045 0)
(1.00025 0.00050396 0)
(1.00029 0.000363927 0)
(0.999689 0.000710498 0)
(0.999306 0.0011094 0)
(0.999548 0.00121132 0)
(0.999971 0.0011602 0)
(1.00004 0.00121802 0)
(0.999768 0.00145583 0)
(0.999526 0.00172738 0)
(0.99963 0.0018718 0)
(0.999964 0.00187013 0)
(1.00019 0.00189282 0)
(1 8.44076e-05 0)
(1.00006 -5.50799e-05 0)
(0.999802 0.000130824 0)
(0.999812 0.00043727 0)
(1.00022 0.000257618 0)
(1.00018 0.000155452 0)
(0.999675 0.000536768 0)
(0.999626 0.000822253 0)
(1.00011 0.000661903 0)
(1.00031 0.000475265 0)
(0.999918 0.000668459 0)
(0.999511 0.00104389 0)
(0.999592 0.00123665 0)
(0.999961 0.00122767 0)
(1.00015 0.00122768 0)
(1.00001 0.00137257 0)
(0.99978 0.00159832 0)
(0.999756 0.0017822 0)
(0.999989 0.0018348 0)
(1.00023 0.00184716 0)
(0.999998 7.59919e-05 0)
(1.00006 -6.099e-06 0)
(0.999872 0.000102936 0)
(0.999825 0.000396478 0)
(1.00014 0.000332361 0)
(1.0002 0.000197072 0)
(0.99982 0.000448827 0)
(0.99967 0.000767264 0)
(1 0.000755666 0)
(1.00028 0.000596362 0)
(1.00009 0.000669344 0)
(0.999737 0.000966962 0)
(0.999695 0.00120069 0)
(0.999961 0.00125685 0)
(1.0002 0.00124927 0)
(1.00018 0.00132418 0)
(1.00002 0.0014884 0)
(0.999937 0.00166216 0)
(1.00006 0.00176069 0)
(1.00027 0.00178813 0)
(0.999996 6.56588e-05 0)
(1.00005 3.59972e-05 0)
(0.999929 9.61931e-05 0)
(0.999859 0.000347363 0)
(1.00008 0.000373371 0)
(1.00019 0.000258538 0)
(0.999943 0.000401563 0)
(0.999761 0.000693328 0)
(0.999956 0.000785496 0)
(1.00023 0.000694475 0)
(1.00019 0.000702646 0)
(0.999943 0.000904924 0)
(0.999842 0.00112923 0)
(0.999999 0.00123716 0)
(1.00022 0.00125416 0)
(1.00029 0.00129391 0)
(1.00021 0.00140259 0)
(1.00013 0.00154293 0)
(1.00017 0.00165524 0)
(1.00032 0.00170697 0)
(0.999995 5.57608e-05 0)
(1.00003 6.77398e-05 0)
(0.999969 0.000104347 0)
(0.999902 0.000301666 0)
(1.00004 0.000383293 0)
(1.00016 0.00031713 0)
(1.00003 0.000390205 0)
(0.999871 0.000622781 0)
(0.999962 0.000766084 0)
(1.00018 0.000749667 0)
(1.00024 0.000741854 0)
(1.0001 0.000866216 0)
(1 0.00105079 0)
(1.00008 0.00117932 0)
(1.00025 0.00122858 0)
(1.00036 0.001261 0)
(1.00035 0.00133215 0)
(1.00031 0.00143564 0)
(1.00031 0.00153795 0)
(1.0004 0.00160386 0)
(0.999996 4.81123e-05 0)
(1.00002 8.64504e-05 0)
(0.999996 0.000118115 0)
(0.999946 0.000266296 0)
(1.00003 0.000371317 0)
(1.00014 0.000357056 0)
(1.00009 0.000398092 0)
(0.999975 0.000567588 0)
(1.00001 0.000720131 0)
(1.00017 0.00076037 0)
(1.00027 0.00076481 0)
(1.00022 0.000841202 0)
(1.00015 0.000979104 0)
(1.00018 0.00110201 0)
(1.0003 0.00117246 0)
(1.00041 0.00121179 0)
(1.00046 0.0012632 0)
(1.00045 0.0013371 0)
(1.00045 0.00141962 0)
(1.0005 0.00148597 0)
(0.999997 4.2337e-05 0)
(1.00002 9.53018e-05 0)
(1.00001 0.000131097 0)
(0.999985 0.000241769 0)
(1.00003 0.000348035 0)
(1.00012 0.000373506 0)
(1.00013 0.000407825 0)
(1.00006 0.000527529 0)
(1.00007 0.000664553 0)
(1.00018 0.000735939 0)
(1.00028 0.000762207 0)
(1.0003 0.000815675 0)
(1.00027 0.000914596 0)
(1.00029 0.00101892 0)
(1.00037 0.00109449 0)
(1.00047 0.00114193 0)
(1.00053 0.00118553 0)
(1.00056 0.00123982 0)
(1.00057 0.00130271 0)
(1.00061 0.00136105 0)
(0.999998 3.80961e-05 0)
(1.00001 9.73818e-05 0)
(1.00002 0.000138873 0)
(1.00002 0.00022395 0)
(1.00005 0.000320368 0)
(1.00012 0.000369409 0)
(1.00015 0.000408403 0)
(1.00013 0.000495429 0)
(1.00014 0.000607469 0)
(1.00022 0.000688224 0)
(1.00031 0.000732344 0)
(1.00036 0.000778304 0)
(1.00037 0.000850243 0)
(1.00039 0.000932963 0)
(1.00045 0.00100299 0)
(1.00053 0.00105335 0)
(1.00059 0.00109457 0)
(1.00064 0.00113768 0)
(1.00067 0.0011856 0)
(1.0007 0.00123328 0)
(0.999999 3.47253e-05 0)
(1.00001 9.44529e-05 0)
(1.00003 0.000139887 0)
(1.00004 0.000208412 0)
(1.00007 0.000291042 0)
(1.00013 0.000349565 0)
(1.00017 0.000394678 0)
(1.00018 0.000462561 0)
(1.0002 0.00055066 0)
(1.00026 0.000627217 0)
(1.00034 0.00067969 0)
(1.0004 0.00072446 0)
(1.00044 0.000779582 0)
(1.00047 0.000843288 0)
(1.00052 0.000902943 0)
(1.00059 0.000951036 0)
(1.00065 0.000990317 0)
(1.0007 0.00102708 0)
(1.00075 0.00106477 0)
(1.00079 0.00110251 0)
(1 3.14696e-05 0)
(1.00001 8.78493e-05 0)
(1.00004 0.000133906 0)
(1.00006 0.000191193 0)
(1.00009 0.000259971 0)
(1.00014 0.000318395 0)
(1.00019 0.000366188 0)
(1.00022 0.000422605 0)
(1.00026 0.000491592 0)
(1.00031 0.000557625 0)
(1.00038 0.000609796 0)
(1.00044 0.000653194 0)
(1.00049 0.000698226 0)
(1.00054 0.000747507 0)
(1.00059 0.000795934 0)
(1.00065 0.000838302 0)
(1.00071 0.000874145 0)
(1.00076 0.000906222 0)
(1.00081 0.000936917 0)
(1.00085 0.000966816 0)
(1 2.77824e-05 0)
(1.00002 7.81256e-05 0)
(1.00004 0.000121207 0)
(1.00007 0.000169519 0)
(1.00011 0.000225522 0)
(1.00016 0.000278163 0)
(1.00021 0.000323855 0)
(1.00025 0.000371547 0)
(1.0003 0.000425704 0)
(1.00035 0.000479647 0)
(1.00042 0.000526033 0)
(1.00048 0.000565436 0)
(1.00054 0.00060296 0)
(1.00059 0.000641429 0)
(1.00064 0.00067942 0)
(1.0007 0.000714249 0)
(1.00076 0.000744812 0)
(1.00081 0.000772036 0)
(1.00086 0.000797184 0)
(1.00091 0.000821004 0)
(1 2.34703e-05 0)
(1.00002 6.58685e-05 0)
(1.00005 0.00010302 0)
(1.00008 0.000142393 0)
(1.00012 0.000186171 0)
(1.00017 0.000229258 0)
(1.00023 0.000268284 0)
(1.00028 0.000306695 0)
(1.00033 0.000347666 0)
(1.00039 0.000388905 0)
(1.00045 0.000426173 0)
(1.00051 0.000458586 0)
(1.00058 0.000488304 0)
(1.00063 0.000517332 0)
(1.00069 0.000545678 0)
(1.00074 0.000572232 0)
(1.0008 0.00059611 0)
(1.00085 0.000617448 0)
(1.0009 0.000636806 0)
(1.00095 0.000654736 0)
(1 1.87997e-05 0)
(1.00002 5.32291e-05 0)
(1.00005 8.44717e-05 0)
(1.00009 0.000117279 0)
(1.00013 0.000152931 0)
(1.00018 0.000188946 0)
(1.00024 0.000222984 0)
(1.0003 0.000255789 0)
(1.00036 0.000288941 0)
(1.00042 0.000321907 0)
(1.00048 0.000352795 0)
(1.00054 0.000380645 0)
(1.0006 0.000406091 0)
(1.00066 0.000430199 0)
(1.00072 0.000453359 0)
(1.00078 0.000475238 0)
(1.00083 0.000495362 0)
(1.00088 0.000513588 0)
(1.00093 0.000530097 0)
(1.00098 0.000545178 0)
(1 8.21826e-06 0)
(1.00002 2.36231e-05 0)
(1.00005 3.80814e-05 0)
(1.0001 5.35511e-05 0)
(1.00015 7.03836e-05 0)
(1.0002 8.76835e-05 0)
(1.00026 0.00010445 0)
(1.00032 0.000120639 0)
(1.00038 0.000136614 0)
(1.00044 0.000152329 0)
(1.00051 0.000167256 0)
(1.00057 0.000181035 0)
(1.00064 0.000193737 0)
(1.0007 0.000205678 0)
(1.00076 0.000217029 0)
(1.00081 0.000227767 0)
(1.00087 0.000237764 0)
(1.00092 0.000246957 0)
(1.00097 0.000255366 0)
(1.00102 0.000263071 0)
(0.983376 0.0022869 0)
(0.958508 0.00337553 0)
(0.934464 0.00361951 0)
(0.910906 0.00344902 0)
(0.886891 0.00332728 0)
(0.861839 0.003296 0)
(0.83658 0.00333462 0)
(0.81089 0.00343011 0)
(0.78465 0.00349995 0)
(0.757428 0.00360561 0)
(0.728609 0.00369562 0)
(0.698665 0.00366541 0)
(0.668686 0.00351977 0)
(0.639235 0.00328193 0)
(0.610156 0.00308857 0)
(0.581031 0.00311445 0)
(0.551279 0.00316835 0)
(0.520633 0.00307257 0)
(0.489149 0.00291962 0)
(0.457959 0.00273167 0)
(0.427558 0.00259743 0)
(0.397546 0.00245537 0)
(0.36853 0.00217403 0)
(0.34112 0.00183153 0)
(0.316242 0.00131907 0)
(0.295679 0.000659855 0)
(0.280262 0.000117471 0)
(0.269378 -0.000232477 0)
(0.262236 -0.000482423 0)
(0.258242 -0.000613582 0)
(0.256704 -0.000648044 0)
(0.256909 -0.000680718 0)
(0.258181 -0.000611215 0)
(0.259764 -0.000479217 0)
(0.26097 -0.000343671 0)
(0.261353 -0.000210723 0)
(0.260746 -8.54192e-05 0)
(0.259526 -8.23936e-05 0)
(0.258553 -0.000120286 0)
(0.258325 -0.000126769 0)
(0.258508 -8.82755e-05 0)
(0.258578 -4.65416e-05 0)
(0.258487 -3.58695e-05 0)
(0.258472 -3.56969e-05 0)
(0.258614 -2.54328e-05 0)
(0.258822 -8.98697e-06 0)
(0.259041 5.9655e-06 0)
(0.259283 1.39151e-05 0)
(0.259549 1.53088e-05 0)
(0.259809 1.17778e-05 0)
(0.260035 5.43045e-06 0)
(0.260214 -8.78749e-07 0)
(0.260347 -5.33726e-06 0)
(0.26044 -8.19198e-06 0)
(0.260501 -9.1291e-06 0)
(0.260539 -8.53716e-06 0)
(0.260564 -7.03052e-06 0)
(0.26058 -5.21134e-06 0)
(0.26059 -3.52302e-06 0)
(0.260598 -2.19241e-06 0)
(0.260605 -1.27019e-06 0)
(0.26061 -6.94463e-07 0)
(0.260615 -3.70141e-07 0)
(0.260619 -1.97351e-07 0)
(0.260623 -1.19878e-07 0)
(0.260626 -7.56062e-08 0)
(0.26063 -6.75644e-08 0)
(0.260632 -4.16201e-08 0)
(0.260635 -5.48992e-08 0)
(0.260635 -1.64318e-08 0)
(0.260638 -5.45045e-08 0)
(0.260638 1.53057e-08 0)
(0.260642 -6.71675e-08 0)
(0.260639 4.93057e-08 0)
(0.260645 -9.36301e-08 0)
(0.260638 9.08311e-08 0)
(0.260649 -1.29915e-07 0)
(0.260636 1.33279e-07 0)
(0.260653 -1.58806e-07 0)
(0.260633 1.52877e-07 0)
(0.260658 -1.50535e-07 0)
(0.260629 1.13876e-07 0)
(0.260661 -4.97749e-08 0)
(0.260627 -5.14585e-08 0)
(0.260662 1.5207e-07 0)
(0.260628 -2.48454e-07 0)
(0.260659 3.37183e-07 0)
(0.260632 -3.5542e-07 0)
(0.260653 3.4391e-07 0)
(0.260634 -1.96136e-07 0)
(0.260652 6.75212e-08 0)
(0.260626 2.54952e-07 0)
(0.260655 -2.33937e-07 0)
(0.260604 4.66518e-07 0)
(0.260653 1.54223e-07 0)
(0.26056 3.53793e-07 0)
(0.260635 1.0929e-06 0)
(0.260453 1.21142e-07 0)
(0.260615 2.79601e-06 0)
(0.260136 7.68686e-06 0)
(0.996129 0.00377546 0)
(0.994579 0.0057113 0)
(0.993473 0.00645754 0)
(0.992716 0.00635459 0)
(0.991502 0.006177 0)
(0.989221 0.00616403 0)
(0.986407 0.00621039 0)
(0.983184 0.00632401 0)
(0.979265 0.00644486 0)
(0.974453 0.00657179 0)
(0.968142 0.00675648 0)
(0.960643 0.00685775 0)
(0.952485 0.00679293 0)
(0.943764 0.00668062 0)
(0.934528 0.00657501 0)
(0.92429 0.00650155 0)
(0.913234 0.00659821 0)
(0.901581 0.00683847 0)
(0.888748 0.00691289 0)
(0.875211 0.00674268 0)
(0.860841 0.00658156 0)
(0.845429 0.00645879 0)
(0.829674 0.0062092 0)
(0.813153 0.00584674 0)
(0.796618 0.00522706 0)
(0.781527 0.00435234 0)
(0.767825 0.00346597 0)
(0.755709 0.00264598 0)
(0.745323 0.00190909 0)
(0.736099 0.00130732 0)
(0.728117 0.000848907 0)
(0.721618 0.000487895 0)
(0.716068 0.000263728 0)
(0.711087 0.000190269 0)
(0.706681 0.000195285 0)
(0.702511 0.000242218 0)
(0.698187 0.000377193 0)
(0.693905 0.000403908 0)
(0.690108 0.000254771 0)
(0.686966 9.64896e-05 0)
(0.684433 5.85407e-05 0)
(0.68239 7.69762e-05 0)
(0.680728 6.03217e-05 0)
(0.679411 1.76725e-05 0)
(0.678452 -1.16115e-05 0)
(0.677867 -2.88006e-05 0)
(0.677681 -5.09967e-05 0)
(0.677908 -6.91304e-05 0)
(0.678509 -7.29172e-05 0)
(0.679365 -6.34401e-05 0)
(0.680322 -4.67933e-05 0)
(0.681238 -2.87878e-05 0)
(0.682019 -1.34388e-05 0)
(0.682627 -2.9896e-06 0)
(0.683063 2.88986e-06 0)
(0.683354 5.23175e-06 0)
(0.683537 5.29568e-06 0)
(0.683647 4.23107e-06 0)
(0.683711 2.85475e-06 0)
(0.683748 1.63231e-06 0)
(0.68377 7.35112e-07 0)
(0.683784 1.73932e-07 0)
(0.683794 -1.43471e-07 0)
(0.683801 -2.79271e-07 0)
(0.683807 -3.39614e-07 0)
(0.683811 -3.13923e-07 0)
(0.683816 -3.15097e-07 0)
(0.683817 -2.34615e-07 0)
(0.683822 -2.6016e-07 0)
(0.683822 -1.35109e-07 0)
(0.683828 -2.30809e-07 0)
(0.683823 -2.71901e-08 0)
(0.683834 -2.40793e-07 0)
(0.683821 8.80128e-08 0)
(0.683841 -2.9663e-07 0)
(0.683816 2.19344e-07 0)
(0.68385 -3.78131e-07 0)
(0.683806 3.41312e-07 0)
(0.683864 -4.38153e-07 0)
(0.683793 3.88385e-07 0)
(0.683879 -3.8747e-07 0)
(0.683779 2.61108e-07 0)
(0.68389 -1.08684e-07 0)
(0.683772 -1.12284e-07 0)
(0.683892 3.70979e-07 0)
(0.683777 -6.12524e-07 0)
(0.683879 8.50167e-07 0)
(0.683793 -9.15506e-07 0)
(0.683863 9.64565e-07 0)
(0.683798 -6.8254e-07 0)
(0.683868 5.56363e-07 0)
(0.683771 2.58862e-08 0)
(0.6839 2.17453e-07 0)
(0.68372 4.9589e-07 0)
(0.68392 9.46122e-07 0)
(0.683668 5.0639e-07 0)
(0.683904 3.00294e-06 0)
(0.683568 1.16193e-06 0)
(0.68386 4.16016e-06 0)
(0.683349 1.73079e-05 0)
(0.996738 0.00350835 0)
(0.995743 0.00454198 0)
(0.995459 0.00526611 0)
(0.996073 0.00524136 0)
(0.996633 0.00505815 0)
(0.996795 0.00505846 0)
(0.996867 0.00515274 0)
(0.997162 0.00542909 0)
(0.997559 0.00575813 0)
(0.997715 0.00610667 0)
(0.997286 0.00655584 0)
(0.996473 0.00684682 0)
(0.99556 0.00694212 0)
(0.994473 0.00693488 0)
(0.993064 0.00683426 0)
(0.991012 0.0068368 0)
(0.988661 0.00704799 0)
(0.986616 0.00735533 0)
(0.984403 0.00746909 0)
(0.981661 0.00732303 0)
(0.978435 0.00730529 0)
(0.974851 0.00734826 0)
(0.970976 0.00721471 0)
(0.96644 0.00698359 0)
(0.961543 0.00642722 0)
(0.956645 0.0054623 0)
(0.951737 0.0044547 0)
(0.947207 0.0034984 0)
(0.943022 0.00258349 0)
(0.938889 0.00192532 0)
(0.93507 0.00142011 0)
(0.931649 0.00095711 0)
(0.92836 0.000701117 0)
(0.92533 0.000640787 0)
(0.922644 0.000634872 0)
(0.920039 0.000740144 0)
(0.91748 0.000914771 0)
(0.91511 0.00092748 0)
(0.912821 0.000693507 0)
(0.910557 0.000459831 0)
(0.908553 0.000389327 0)
(0.906943 0.000371625 0)
(0.905583 0.000298965 0)
(0.904361 0.000199868 0)
(0.903332 0.000126773 0)
(0.902569 7.10047e-05 0)
(0.902083 4.41696e-06 0)
(0.901866 -5.91028e-05 0)
(0.901905 -0.000114778 0)
(0.902167 -0.000149616 0)
(0.902601 -0.000161792 0)
(0.903157 -0.00015559 0)
(0.903786 -0.000136501 0)
(0.904438 -0.00010959 0)
(0.905056 -8.13297e-05 0)
(0.905594 -5.68266e-05 0)
(0.906025 -3.76742e-05 0)
(0.906342 -2.38771e-05 0)
(0.906558 -1.46188e-05 0)
(0.906694 -8.77044e-06 0)
(0.906774 -5.26559e-06 0)
(0.906819 -3.23765e-06 0)
(0.906842 -2.09511e-06 0)
(0.906854 -1.42704e-06 0)
(0.906861 -1.04196e-06 0)
(0.906863 -7.65963e-07 0)
(0.906866 -6.21793e-07 0)
(0.906865 -4.55302e-07 0)
(0.906868 -4.22253e-07 0)
(0.906864 -2.61004e-07 0)
(0.90687 -3.22927e-07 0)
(0.906861 -1.05172e-07 0)
(0.906874 -2.92565e-07 0)
(0.906854 4.2552e-08 0)
(0.906881 -3.23956e-07 0)
(0.906844 1.9564e-07 0)
(0.906893 -3.95261e-07 0)
(0.906827 3.40726e-07 0)
(0.906911 -4.62343e-07 0)
(0.906805 4.20117e-07 0)
(0.906933 -4.37169e-07 0)
(0.906782 3.39585e-07 0)
(0.906952 -2.14948e-07 0)
(0.906767 2.63588e-08 0)
(0.906957 2.9267e-07 0)
(0.90677 -6.19039e-07 0)
(0.906944 1.06606e-06 0)
(0.906789 -1.33776e-06 0)
(0.906922 1.7053e-06 0)
(0.906803 -1.56226e-06 0)
(0.906916 1.64342e-06 0)
(0.906788 -7.67984e-07 0)
(0.906937 9.27678e-07 0)
(0.906753 6.41948e-07 0)
(0.90695 1.31692e-06 0)
(0.906721 1.11028e-06 0)
(0.906927 4.15647e-06 0)
(0.906672 2.67721e-06 0)
(0.906869 5.23827e-06 0)
(0.906545 2.32075e-05 0)
(0.997021 0.00331975 0)
(0.996196 0.00410585 0)
(0.995804 0.0050233 0)
(0.996321 0.00531722 0)
(0.996812 0.00533159 0)
(0.996978 0.00541867 0)
(0.997137 0.00552727 0)
(0.997537 0.00574823 0)
(0.998261 0.00600533 0)
(0.998886 0.00631505 0)
(0.999163 0.00669494 0)
(0.999343 0.00692488 0)
(0.999637 0.00700778 0)
(1.00003 0.00698343 0)
(1.00024 0.00694103 0)
(1.00003 0.00707959 0)
(0.999715 0.00733521 0)
(0.999872 0.00758342 0)
(1.00031 0.0076805 0)
(1.00041 0.00760001 0)
(1.00025 0.00762748 0)
(1.0003 0.00765961 0)
(1.00032 0.00749102 0)
(1.00005 0.00724252 0)
(0.999744 0.00668493 0)
(0.999146 0.00575622 0)
(0.998204 0.00480643 0)
(0.997357 0.00385176 0)
(0.996328 0.00294478 0)
(0.994952 0.00229143 0)
(0.993695 0.00178724 0)
(0.992454 0.00132238 0)
(0.991014 0.00105278 0)
(0.989776 0.000983217 0)
(0.988796 0.000947769 0)
(0.987797 0.00100098 0)
(0.986993 0.00115933 0)
(0.986514 0.00114911 0)
(0.985893 0.00088142 0)
(0.98493 0.000623272 0)
(0.98404 0.000535314 0)
(0.983469 0.00050077 0)
(0.983012 0.000408912 0)
(0.982502 0.000295689 0)
(0.982024 0.000208035 0)
(0.98167 0.000128607 0)
(0.981424 3.95847e-05 0)
(0.981253 -4.52582e-05 0)
(0.981159 -0.000112035 0)
(0.981148 -0.000149403 0)
(0.981212 -0.000162259 0)
(0.981346 -0.000158494 0)
(0.981544 -0.000144173 0)
(0.981792 -0.000123595 0)
(0.982067 -0.000100259 0)
(0.98234 -7.71717e-05 0)
(0.982584 -5.59369e-05 0)
(0.982783 -3.7936e-05 0)
(0.982931 -2.40641e-05 0)
(0.983032 -1.43342e-05 0)
(0.983096 -8.08808e-06 0)
(0.983133 -4.39104e-06 0)
(0.983152 -2.3694e-06 0)
(0.98316 -1.32305e-06 0)
(0.983164 -8.22881e-07 0)
(0.983163 -5.51966e-07 0)
(0.983162 -4.35562e-07 0)
(0.983158 -3.05943e-07 0)
(0.983159 -2.80006e-07 0)
(0.983152 -1.47912e-07 0)
(0.983156 -1.96017e-07 0)
(0.983144 -1.91424e-08 0)
(0.983157 -1.69639e-07 0)
(0.983134 9.63715e-08 0)
(0.983161 -1.9721e-07 0)
(0.98312 2.10566e-07 0)
(0.983173 -2.57916e-07 0)
(0.9831 3.13251e-07 0)
(0.983191 -3.12127e-07 0)
(0.983074 3.5693e-07 0)
(0.983216 -2.81135e-07 0)
(0.983045 2.53184e-07 0)
(0.98324 -4.70667e-08 0)
(0.983023 -1.13084e-07 0)
(0.983252 4.83305e-07 0)
(0.98302 -7.50765e-07 0)
(0.983241 1.25412e-06 0)
(0.983039 -1.49312e-06 0)
(0.983214 1.94267e-06 0)
(0.983064 -1.73252e-06 0)
(0.983192 1.83595e-06 0)
(0.983069 -6.89619e-07 0)
(0.983195 9.01115e-07 0)
(0.983048 1.04068e-06 0)
(0.983204 1.29939e-06 0)
(0.983026 1.84333e-06 0)
(0.983181 4.3294e-06 0)
(0.983005 4.27698e-06 0)