/*--------------------------------*- C++ -*----------------------------------*\
| =========                 |                                                 |
| \\      /  F ield         | OpenFOAM: The Open Source CFD Toolbox           |
|  \\    /   O peration     | Version:  v1906                                 |
|   \\  /    A nd           | Web:      www.OpenFOAM.com                      |
|    \\/     M anipulation  |                                                 |
\*---------------------------------------------------------------------------*/
FoamFile
{
    version     2.0;
    format      ascii;
    class       volScalarField;
    location    "2500";
    object      alphat;
}
// * * * * * * * * * * * * * * * * * * * * * * * * * * * * * * * * * * * * * //

dimensions      [1 -1 -1 0 0 0 0];


internalField   nonuniform List<scalar> 
2000
(
0.000512608
0.000370202
0.000315523
0.000287432
0.000268741
0.00025323
0.000239095
0.0002255
0.000211989
0.000198254
0.000184319
0.000169556
0.000150599
0.000120479
9.22069e-05
4.66907e-05
5.69269e-05
6.79313e-05
7.66738e-05
8.32724e-05
8.89103e-05
9.23712e-05
9.41552e-05
9.43882e-05
9.34321e-05
9.01582e-05
8.23062e-05
7.17055e-05
6.54066e-05
5.15332e-05
5.52123e-05
6.31529e-05
7.03773e-05
7.58623e-05
8.04052e-05
8.40854e-05
8.73897e-05
8.98418e-05
9.17385e-05
9.31418e-05
9.41811e-05
9.49243e-05
9.54629e-05
9.58557e-05
9.61709e-05
9.63273e-05
9.63733e-05
9.60304e-05
9.50437e-05
9.39381e-05
0.0100598
0.00431701
0.0034039
0.00305907
0.00282798
0.00263332
0.00245804
0.00229646
0.00214432
0.00199859
0.00185234
0.00169174
0.00148174
0.00103709
0.000190716
7.68318e-05
0.000343911
0.000481903
0.000618129
0.000731531
0.000822605
0.000889753
0.000927841
0.00092996
0.000887877
0.000794764
0.00063955
0.000419328
9.63746e-05
7.35766e-05
0.000213898
0.000289663
0.000386586
0.000483836
0.000571586
0.000645171
0.000709089
0.000760209
0.000801583
0.000836541
0.000865054
0.000889085
0.000909525
0.000927754
0.00094514
0.000961791
0.00097659
0.000986928
0.000984585
0.000975912
0.0365399
0.0136857
0.00938224
0.0077664
0.0068626
0.00621722
0.00569951
0.00525048
0.00483864
0.00444062
0.00402704
0.00354706
0.00288746
0.00177482
0.000236
9.63828e-05
0.000669307
0.000975603
0.00122192
0.00142283
0.00158231
0.00169027
0.00173167
0.00171299
0.00161192
0.00142212
0.00113285
0.000750746
0.00011026
8.64488e-05
0.000457685
0.000629739
0.000811128
0.000987428
0.00114767
0.00128884
0.00141562
0.0015235
0.00161419
0.00169119
0.00175561
0.00181016
0.00185685
0.00189862
0.00193596
0.00196951
0.00199766
0.00201513
0.00201459
0.00199955
0.0599956
0.0265825
0.0174011
0.0136843
0.0116646
0.010306
0.00927982
0.00842352
0.00765581
0.00691935
0.00615299
0.00526502
0.00408954
0.00234596
0.000269804
0.000110896
0.000896672
0.00137763
0.00171501
0.00197761
0.00217357
0.00229613
0.0023227
0.00227336
0.002115
0.00184501
0.00145618
0.000934501
0.000119736
9.7163e-05
0.000656361
0.00093141
0.00118473
0.00142291
0.00164107
0.00183778
0.00201525
0.00217028
0.00230382
0.00241864
0.00251659
0.00260041
0.00267384
0.00273801
0.00279466
0.00284364
0.00288296
0.00290743
0.00291155
0.00289851
0.0741572
0.0395819
0.0264071
0.020362
0.0169738
0.0147376
0.0130659
0.0117085
0.0105097
0.00936937
0.00818982
0.00684233
0.00513029
0.00280606
0.000297746
0.000122135
0.00105668
0.00169056
0.00210819
0.00241441
0.00263512
0.00276484
0.00277838
0.00269784
0.00248477
0.00213732
0.00165103
0.00101929
0.000126964
0.000105668
0.00081096
0.00118001
0.00149532
0.00178212
0.0020452
0.00228519
0.00250276
0.00269611
0.0028656
0.0030133
0.00314131
0.00325212
0.00335061
0.00343621
0.00351113
0.00357499
0.00362556
0.00365804
0.00366905
0.00366225
0.082526
0.0507696
0.0353577
0.0273096
0.0225411
0.0193458
0.0169701
0.0150399
0.0133555
0.011763
0.0101283
0.00829285
0.00605246
0.0031916
0.000320415
0.000131304
0.00117478
0.00193351
0.00241756
0.00276121
0.00300169
0.00313718
0.00314046
0.00303253
0.00277031
0.00235228
0.00177269
0.00105327
0.000131346
0.000112515
0.000927741
0.00137262
0.00174274
0.00206854
0.00236644
0.00263993
0.00288915
0.00311314
0.00331264
0.00348917
0.00364462
0.00378118
0.00390269
0.00400877
0.00410141
0.00418007
0.00424251
0.00428444
0.00430364
0.00430404
0.0877667
0.0597535
0.0435736
0.0340951
0.0281127
0.0239842
0.0208808
0.0183583
0.0161507
0.0140755
0.0119607
0.0096287
0.00687303
0.00351715
0.000339478
0.000139209
0.00126919
0.00212332
0.00266482
0.00304259
0.00330406
0.00344989
0.0034499
0.00332203
0.0030189
0.00253622
0.00186829
0.00105708
0.000134979
0.000117726
0.00100361
0.00151131
0.00192849
0.00228616
0.00261158
0.0029119
0.00318778
0.00343871
0.00366464
0.00386658
0.00404624
0.00420562
0.00434796
0.0044734
0.00458321
0.0046767
0.00475153
0.00480389
0.00483113
0.0048338
0.0912591
0.066784
0.0507551
0.040417
0.033475
0.0285108
0.0247094
0.0215925
0.0188572
0.0162846
0.013681
0.0108532
0.00760085
0.00379705
0.000356165
0.00014624
0.00134524
0.00227298
0.00286437
0.00327687
0.0035647
0.00372915
0.00373661
0.00359771
0.00326465
0.00272471
0.00197111
0.00105258
0.000138313
0.000122046
0.00103885
0.00160165
0.00205517
0.00243977
0.0027877
0.00311037
0.00340952
0.00368408
0.00393355
0.00415853
0.00436047
0.00454123
0.00470331
0.00484729
0.00497399
0.00508243
0.00517028
0.00523401
0.00527092
0.00528035
0.0937066
0.072254
0.0568531
0.0461096
0.0384751
0.0328104
0.0283742
0.0246903
0.0214369
0.0183717
0.0152844
0.011974
0.00825235
0.00404002
0.000371134
0.000152567
0.00140403
0.00239088
0.00302657
0.00347732
0.00379952
0.00399261
0.00401999
0.00388104
0.00352985
0.00294159
0.00210604
0.00107033
0.000141859
0.000124703
0.00103526
0.00164166
0.00212743
0.00253235
0.00290047
0.00324423
0.00356502
0.00386136
0.00413239
0.00437841
0.00460077
0.00480125
0.00498181
0.00514328
0.00528637
0.00540964
0.00551072
0.0055861
0.00563283
0.00564913
0.0954877
0.0765216
0.0619453
0.0511127
0.0430214
0.0368007
0.0318122
0.0276078
0.0238633
0.020325
0.016772
0.0130016
0.00884108
0.0042556
0.000384794
0.000158315
0.00144788
0.00248193
0.0031588
0.00365395
0.00402005
0.00425171
0.00431156
0.00418569
0.00382619
0.00320039
0.00228754
0.00112408
0.000146823
0.000126878
0.00100046
0.0016354
0.00214347
0.00256907
0.00295814
0.00332356
0.00366576
0.00398279
0.00427365
0.00453873
0.00477953
0.00499784
0.00519543
0.00537327
0.00553203
0.00566975
0.00578398
0.00587099
0.00592733
0.00595005
0.09682
0.0798704
0.066157
0.0554338
0.0470733
0.040432
0.0349808
0.0303144
0.0261196
0.02214
0.0181509
0.0139507
0.00938284
0.00445407
0.000397583
0.000163538
0.00148012
0.00254869
0.00326725
0.00381565
0.00423554
0.00451407
0.00461817
0.0045152
0.00416041
0.00350796
0.00252297
0.00122154
0.000155125
0.000126714
0.000934867
0.00158287
0.00211056
0.00255808
0.00297149
0.00336063
0.00372448
0.00406101
0.00436966
0.00465143
0.00490827
0.00514214
0.00535469
0.00554786
0.00572094
0.00587234
0.00599926
0.00609761
0.00616324
0.00619198
0.0978365
0.0825136
0.0696203
0.0591177
0.0506267
0.043682
0.0378562
0.032793
0.0281982
0.0238201
0.0194339
0.0148408
0.00989749
0.00464756
0.00041005
0.000168548
0.00150747
0.00259263
0.00335972
0.00397252
0.00445498
0.0047881
0.00493921
0.00486978
0.00453181
0.00386687
0.00281827
0.00137199
0.00016965
0.000126027
0.000840187
0.00148499
0.00203894
0.00251352
0.0029565
0.00337129
0.00375611
0.00410986
0.00443326
0.00472837
0.00499805
0.00524452
0.00546958
0.00567578
0.00586161
0.00602548
0.00616425
0.00627337
0.00634791
0.00638235
0.0986226
0.0846092
0.0724554
0.0622256
0.0537003
0.0465484
0.0404301
0.0350374
0.0300998
0.0253749
0.0206404
0.0156986
0.0104128
0.0048542
0.00042278
0.000173101
0.00152291
0.00261979
0.00345044
0.00413859
0.00468803
0.00507749
0.00527646
0.00524653
0.00493655
0.00427552
0.00318018
0.00159413
0.000190979
0.000125284
0.000695342
0.0013524
0.00194631
0.00245888
0.00293627
0.00337586
0.00377813
0.00414441
0.00447759
0.00478116
0.0050594
0.00531404
0.00554918
0.00576516
0.00596144
0.00613605
0.00628544
0.00640452
0.00648746
0.00652732
0.0992353
0.0862735
0.0747648
0.0648213
0.056325
0.0490422
0.0427048
0.0370496
0.031831
0.0268188
0.0217949
0.0165601
0.0109705
0.00510089
0.000436621
0.000178288
0.00150455
0.00264896
0.00356576
0.00433451
0.00494736
0.00538755
0.00563037
0.00564093
0.0053684
0.00472986
0.00361361
0.00191113
0.000217634
0.000120233
0.000557862
0.0012406
0.00186894
0.00243331
0.0029422
0.00339874
0.00380981
0.00418031
0.00451576
0.00482094
0.00510176
0.00536062
0.00560073
0.00582304
0.00602692
0.00621005
0.00636842
0.00649633
0.00658702
0.00663203
0.0997138
0.087592
0.0766319
0.0669647
0.0585357
0.051181
0.044689
0.038836
0.033401
0.028168
0.0229254
0.0174701
0.0116428
0.00546687
0.000452749
0.000183408
0.00146629
0.00272917
0.00374839
0.00458881
0.00524988
0.00572599
0.00600197
0.00604942
0.00581798
0.00522377
0.00412016
0.00232211
0.000250708
0.000120741
0.000491261
0.00122708
0.00189801
0.00249266
0.00301158
0.00346571
0.00387028
0.00423242
0.00455968
0.00485854
0.00513454
0.00539122
0.00563129
0.00585575
0.00606377
0.0062527
0.00641802
0.00655335
0.00665096
0.00670079
0.100085
0.0886274
0.0781228
0.0687074
0.0603662
0.0529843
0.0463937
0.0404042
0.0348183
0.0294364
0.0240578
0.0184829
0.0125293
0.0061189
0.000472667
0.000263016
0.00157725
0.00297151
0.00406606
0.00493869
0.00561597
0.00610273
0.00639394
0.00646804
0.00627606
0.00574954
0.00471502
0.00284502
0.000312206
0.000189177
0.000622339
0.00143273
0.00212199
0.0026907
0.00317636
0.00359946
0.00397522
0.00431288
0.00461953
0.00490194
0.00516516
0.00541275
0.00564703
0.00586885
0.00607707
0.00626862
0.00643848
0.00657953
0.00668301
0.00673726
0.100369
0.0894252
0.0792877
0.0700915
0.0618458
0.0544698
0.0478286
0.0417595
0.0360869
0.0306299
0.025206
0.019639
0.0137887
0.0076471
0.00178634
0.00153027
0.00243018
0.00357547
0.00459703
0.0054229
0.00606637
0.00652835
0.00681028
0.00689409
0.00673972
0.00628824
0.00541297
0.00392514
0.00177754
0.00154496
0.00175122
0.00216521
0.00262449
0.00305572
0.00345155
0.00380839
0.00413225
0.00442865
0.0047016
0.00495725
0.00519929
0.00543065
0.00565302
0.00586708
0.00607117
0.00626184
0.00643352
0.0065783
0.00668642
0.0067446
0.100578
0.0900175
0.0801637
0.0711488
0.0629971
0.0556509
0.0489996
0.0429026
0.0372039
0.0317422
0.0263587
0.0209121
0.0153207
0.00967686
0.00440657
0.00347056
0.00388733
0.00461892
0.00539036
0.00606706
0.00661099
0.00700897
0.0072534
0.00732733
0.00719826
0.00681324
0.0061102
0.00496801
0.00346868
0.00293093
0.0028906
0.00303652
0.00327388
0.00354367
0.00381841
0.00408488
0.00433879
0.00458016
0.00480766
0.0050274
0.00524037
0.00544878
0.00565309
0.00585426
0.00604974
0.0062358
0.00640641
0.00655267
0.00666399
0.00672551
0.100721
0.0904259
0.0807758
0.0719011
0.0638351
0.0565353
0.0499078
0.0438285
0.0381583
0.0327545
0.0274825
0.0222359
0.0169806
0.0118549
0.0073239
0.00581518
0.00562564
0.00593314
0.0063898
0.006851
0.0072464
0.00754326
0.00772289
0.00776583
0.00764419
0.00731813
0.00674576
0.00587643
0.00481891
0.00418295
0.00394725
0.00390195
0.00396337
0.00408517
0.00423879
0.0044078
0.00458301
0.00475986
0.00493572
0.00511198
0.00528934
0.0054692
0.00564958
0.00583325
0.00601564
0.00619335
0.00635928
0.00650472
0.00661769
0.00668191
0.100803
0.0906629
0.0811387
0.0723606
0.0643671
0.0571243
0.0505483
0.0445263
0.0389318
0.033638
0.0285314
0.0235337
0.0186416
0.0140061
0.010067
0.00819403
0.00749057
0.00737212
0.00751172
0.00773163
0.00795003
0.00811987
0.00821278
0.00820555
0.00807265
0.00778349
0.0073077
0.00663288
0.00584425
0.00522154
0.00487904
0.00470028
0.00462888
0.00462866
0.00467487
0.00475147
0.00484815
0.00495848
0.00507856
0.00520736
0.00534457
0.00549032
0.00564392
0.00580595
0.00597088
0.00613648
0.00629514
0.00643727
0.00655012
0.00661622
0.100826
0.0907337
0.0812575
0.0725301
0.0645924
0.0574128
0.0509111
0.04498
0.0395008
0.0343586
0.0294554
0.0247318
0.0201998
0.0160006
0.0124929
0.0104426
0.00930436
0.00884194
0.008677
0.00865835
0.00869019
0.00871959
0.00871144
0.00863925
0.00847846
0.00820399
0.0077943
0.00724612
0.00661723
0.00605981
0.00566486
0.00540067
0.00523424
0.00513923
0.00509634
0.00509192
0.00511628
0.00516289
0.00522742
0.00530774
0.00540278
0.00551209
0.0056351
0.00577109
0.0059168
0.00606702
0.0062155
0.006352
0.00646296
0.00652982
0.100789
0.0906359
0.0811283
0.0724041
0.0645029
0.0573897
0.0509811
0.0451696
0.0398388
0.0348801
0.0302057
0.025766
0.0215761
0.0177531
0.0145616
0.0124209
0.0110166
0.0102576
0.00982652
0.00958136
0.0094319
0.00931844
0.00920282
0.0090564
0.00885499
0.00857676
0.00820481
0.0077375
0.00721123
0.00671136
0.00630357
0.00599102
0.00575992
0.00559456
0.00548128
0.00540945
0.00537094
0.00535994
0.0053724
0.00540588
0.00545904
0.00553121
0.00562183
0.00572987
0.00585264
0.00598536
0.00612159
0.0062504
0.00635782
0.00642347
0.10069
0.0903602
0.0807381
0.0719675
0.0640828
0.0570384
0.050741
0.0450737
0.0399184
0.0351684
0.0307388
0.0265839
0.0227132
0.0192139
0.0162674
0.0141035
0.0125411
0.0115539
0.0109009
0.010458
0.0101403
0.00989052
0.00966814
0.00944382
0.00919379
0.00889809
0.00854207
0.00812298
0.00766192
0.00720764
0.006805
0.00646847
0.00619634
0.0059812
0.00581462
0.0056891
0.00559837
0.00553767
0.00550363
0.00549399
0.00550749
0.00554347
0.00560152
0.00568078
0.00577898
0.00589197
0.00601311
0.00613207
0.00623467
0.0062992
0.100521
0.0898898
0.080065
0.0711974
0.0633097
0.056337
0.0501665
0.0446675
0.0397131
0.0351914
0.0310189
0.0271465
0.0235729
0.0203563
0.0176156
0.0154766
0.0138304
0.0126822
0.0118554
0.0112476
0.0107838
0.0104102
0.0100875
0.00978675
0.00948477
0.00916287
0.00880747
0.00841403
0.00799321
0.00757268
0.00718181
0.00683622
0.00654013
0.00629167
0.00608654
0.00592
0.00578764
0.00568586
0.00561204
0.00556438
0.00554186
0.00554404
0.00557074
0.00562146
0.00569454
0.00578649
0.00589111
0.00599869
0.00609509
0.00615788
0.100273
0.0891995
0.0790775
0.0700625
0.0621558
0.0552613
0.0492368
0.0439295
0.0391981
0.0349233
0.0310154
0.0274216
0.0241285
0.0211694
0.0186137
0.0165342
0.0148585
0.0136085
0.012655
0.0119177
0.0113332
0.0108531
0.0104413
0.0100699
0.0097168
0.00936459
0.00900021
0.00861745
0.00822039
0.00782372
0.00744583
0.0070997
0.00679148
0.00652237
0.00629091
0.00609453
0.00593044
0.00579612
0.00568969
0.00560985
0.00555595
0.00552777
0.0055255
0.00554902
0.00559739
0.00566787
0.00575509
0.00585009
0.00593915
0.00599976
0.0999312
0.0882537
0.077733
0.068523
0.060588
0.0537849
0.0479298
0.0428401
0.0383547
0.0343431
0.0307078
0.0273908
0.0243662
0.0216466
0.0192708
0.0172751
0.0156126
0.0143103
0.0132737
0.0124423
0.0117642
0.0111979
0.0107111
0.010278
0.00987835
0.00949567
0.00911753
0.00873668
0.00835259
0.00797228
0.00760654
0.00726458
0.00695229
0.00667208
0.00642417
0.00620752
0.00602059
0.00586178
0.00572984
0.00562395
0.00554386
0.0054895
0.00546145
0.00546007
0.00548503
0.00553445
0.00560397
0.00568563
0.00576655
0.00582456
0.099476
0.0870043
0.0759764
0.0665305
0.0585695
0.0518813
0.0462264
0.0413837
0.0371687
0.0334377
0.0300864
0.0270433
0.0242801
0.0217909
0.0195928
0.0177019
0.0160884
0.014774
0.0136931
0.0128009
0.0120567
0.0114258
0.0108802
0.010397
0.00995797
0.00954794
0.00915515
0.00877161
0.00839447
0.00802576
0.0076709
0.0073359
0.00702501
0.00674085
0.00648438
0.00625551
0.00605354
0.00587757
0.00572688
0.00560103
0.00549993
0.00542414
0.0053742
0.00535088
0.00535448
0.00538401
0.00543618
0.00550426
0.00557651
0.00563163
0.0988792
0.0853862
0.0737382
0.0640292
0.0560619
0.0495268
0.0441122
0.0395511
0.035633
0.0322
0.0291399
0.0263781
0.0238704
0.021608
0.0195907
0.0178173
0.0162874
0.0149927
0.0139004
0.0129786
0.0121947
0.0115209
0.0109339
0.0104139
0.00994477
0.00951301
0.00910777
0.00872106
0.00834835
0.00798872
0.00764408
0.00731751
0.00701182
0.00672907
0.00647034
0.00623593
0.00602567
0.00583915
0.00567602
0.00553612
0.0054196
0.00532705
0.00525934
0.00521752
0.00520242
0.00521384
0.00524963
0.00530437
0.00536778
0.00541987
0.0981011
0.0833123
0.070933
0.0609572
0.0530289
0.0467036
0.0415803
0.0373409
0.0337482
0.0306317
0.0278727
0.025393
0.0231459
0.0211073
0.0192744
0.0176368
0.0162038
0.0149607
0.0138894
0.0129655
0.0121663
0.0114711
0.01086
0.0103172
0.0098287
0.00938279
0.00896968
0.00858165
0.00821347
0.0078625
0.00752833
0.0072119
0.00691459
0.00663762
0.00638181
0.00614753
0.00593483
0.00574357
0.00557363
0.00542507
0.00529819
0.00519365
0.00511247
0.00505591
0.0050252
0.00502085
0.00504175
0.00508388
0.00513862
0.00518774
0.0970845
0.0806654
0.0674572
0.0572504
0.0494411
0.0434046
0.0386352
0.0347621
0.0315243
0.028742
0.0262937
0.0240996
0.0221104
0.0203
0.0186551
0.0171713
0.0158479
0.0146792
0.0136526
0.0127527
0.011962
0.0112649
0.0106475
0.0100965
0.00960047
0.00914939
0.00873472
0.00834937
0.00798796
0.00764697
0.00732457
0.00702022
0.00673408
0.00646655
0.006218
0.00598867
0.00577859
0.00558774
0.00541614
0.00526395
0.00513153
0.00501962
0.00492928
0.00486188
0.00481892
0.0048015
0.00480946
0.00484015
0.00488673
0.00493313
0.0957436
0.0772872
0.0631913
0.0528501
0.0452842
0.0396391
0.0352959
0.0318357
0.0289811
0.0265487
0.0244185
0.0225127
0.0207816
0.0191975
0.0177479
0.0164254
0.0152295
0.0141539
0.0131929
0.0123362
0.0115741
0.0108949
0.0102879
0.00974333
0.0092519
0.00880547
0.00839682
0.00801967
0.00766887
0.00734061
0.00703231
0.00674246
0.00647031
0.00621555
0.00597809
0.00575788
0.00555486
0.005369
0.00520035
0.00504911
0.00491567
0.00480075
0.00470542
0.00463106
0.00457936
0.00455184
0.00454915
0.00456992
0.00460916
0.00465333
0.0939457
0.0729651
0.0580052
0.0477158
0.0405693
0.0354394
0.0315991
0.0285962
0.0261487
0.0240774
0.0222691
0.0206518
0.019176
0.0178199
0.0165672
0.0154116
0.0143517
0.0133845
0.012507
0.0117139
0.0109989
0.0103549
0.00977437
0.00925027
0.00877567
0.00834417
0.00794995
0.00758761
0.00725249
0.00694088
0.00664988
0.00637749
0.00612234
0.00588359
0.00566072
0.00545339
0.00526139
0.00508461
0.00492306
0.00477693
0.00464659
0.00453273
0.00443639
0.00435886
0.00430192
0.0042674
0.00425656
0.00426921
0.00430219
0.00434484
0.0914735
0.0674173
0.0517779
0.0418468
0.0353467
0.0308669
0.0276023
0.0250925
0.0230676
0.021361
0.0198724
0.0185385
0.0173164
0.016184
0.015128
0.0141428
0.0132269
0.0123794
0.0115996
0.0108853
0.0102335
0.00964025
0.00910097
0.0086109
0.00816517
0.00775904
0.00738813
0.00704796
0.00673446
0.00644427
0.00617456
0.0059231
0.00568823
0.00546875
0.00526381
0.00507284
0.00489545
0.00473143
0.00458073
0.00444347
0.00432
0.00421095
0.00411734
0.00404024
0.00398144
0.00394299
0.00392664
0.00393313
0.00396109
0.00400315
0.0879496
0.0602891
0.0444385
0.0353133
0.0297196
0.0260177
0.0233842
0.0213869
0.0197874
0.0184377
0.0172617
0.0162014
0.0152234
0.0143087
0.0134465
0.0126322
0.0118649
0.0111452
0.0104738
0.00985108
0.00927614
0.00874749
0.00826287
0.00781952
0.0074143
0.00704391
0.00670533
0.00639511
0.00610974
0.00584639
0.00560249
0.00537591
0.00516486
0.00496799
0.00478426
0.00461293
0.00445348
0.00430558
0.00416911
0.00404415
0.00393098
0.00383016
0.00374274
0.00366939
0.00361197
0.00357255
0.0035533
0.00355577
0.00357977
0.0036225
0.0826721
0.0511937
0.036046
0.0282935
0.0238553
0.021022
0.0190425
0.0175524
0.0163616
0.0153554
0.0144718
0.013669
0.0129215
0.0122142
0.0115393
0.0108932
0.0102759
0.00968888
0.00913391
0.00861259
0.00812581
0.00767375
0.00725585
0.00687091
0.00651719
0.00619259
0.00589527
0.0056229
0.00537248
0.00514176
0.00492862
0.00473115
0.00454769
0.00437688
0.00421761
0.00406907
0.00393064
0.00380195
0.00368281
0.00357325
0.00347347
0.00338397
0.0033059
0.00323934
0.00318632
0.00314865
0.00312896
0.00312912
0.00315081
0.00319549
0.0742633
0.0398894
0.0269134
0.0211044
0.0179836
0.0160379
0.0146863
0.0136722
0.0128548
0.0121588
0.0115407
0.0109725
0.0104364
0.00992214
0.00942409
0.00894025
0.00847109
0.00801842
0.00758464
0.00717202
0.00678237
0.00641692
0.0060762
0.00576015
0.00546806
0.00519871
0.00495125
0.00472446
0.00451579
0.00432361
0.00414633
0.0039824
0.0038304
0.00368912
0.0035575
0.00343476
0.00332028
0.00321365
0.00311465
0.00302329
0.00293972
0.00286427
0.00279842
0.00274138
0.00269546
0.00266193
0.00264396
0.00264328
0.00266265
0.00271086
0.0600603
0.0267795
0.0177362
0.0141953
0.012376
0.0112326
0.0104384
0.00982976
0.00933125
0.00890018
0.008511
0.00814722
0.00779824
0.00745766
0.00712216
0.00679074
0.00646417
0.00614425
0.00583332
0.00553376
0.00524759
0.00497648
0.00472151
0.00448326
0.00426169
0.00405607
0.00386639
0.00369227
0.00353177
0.00338382
0.00324738
0.00312133
0.00300461
0.00289625
0.00279535
0.00270127
0.00261341
0.00253145
0.00245515
0.00238452
0.00231968
0.00226067
0.00220961
0.0021645
0.00212803
0.00210052
0.00208598
0.00208526
0.00210192
0.00215383
0.0365659
0.0137901
0.0095741
0.0080736
0.00729912
0.00678902
0.00641449
0.00611727
0.00586652
0.00564428
0.00543903
0.005243
0.00505099
0.00485977
0.0046677
0.00447438
0.00428052
0.0040875
0.00389708
0.00371114
0.00353135
0.00335917
0.00319571
0.00304174
0.00289749
0.00276227
0.00263673
0.00252108
0.00241414
0.0023153
0.00222405
0.00213976
0.00206172
0.0019893
0.00192185
0.00185893
0.00180008
0.00174509
0.00169373
0.00164605
0.00160223
0.00156171
0.00152772
0.00149654
0.00147139
0.00145114
0.00144114
0.00144006
0.0014521
0.00150398
0.0100622
0.00435939
0.00349212
0.00320153
0.00303415
0.00289889
0.00278537
0.00268925
0.00260439
0.00252672
0.00245309
0.00238114
0.0023091
0.00223593
0.00216101
0.00208418
0.00200574
0.0019263
0.00184668
0.00176777
0.00169039
0.00161534
0.00154321
0.00147456
0.00140954
0.00134713
0.00128806
0.00123339
0.00118253
0.00113533
0.00109167
0.00105131
0.00101393
0.000979257
0.00094693
0.000916781
0.000888499
0.000862094
0.000837311
0.000814284
0.000793269
0.000773016
0.000757798
0.00074205
0.000729343
0.000717189
0.000711967
0.000709124
0.000713304
0.000748638
0.000512579
0.000371073
0.00031876
0.000293954
0.000279365
0.000268852
0.000260544
0.000253685
0.000247763
0.000242515
0.000237718
0.000233197
0.000228803
0.000224429
0.000219995
0.000215441
0.000210742
0.00020589
0.000200901
0.000195804
0.000190635
0.000185435
0.000180244
0.000175111
0.000170049
0.000165114
0.000160328
0.000155711
0.000151268
0.000147001
0.000142914
0.00013901
0.000135289
0.000131748
0.000128383
0.000125183
0.000122148
0.000119262
0.000116539
0.000113941
0.00011153
0.000109212
0.000107112
0.000105172
0.000103441
0.000101933
0.000100609
9.97634e-05
9.91726e-05
0.000100001
)
;

boundaryField
{
    floor
    {
        type            compressible::alphatWallFunction;
        Prt             0.85;
        value           nonuniform List<scalar> 
50
(
7.11524e-05
4.89266e-05
4.01127e-05
3.55072e-05
3.24095e-05
2.98167e-05
2.74348e-05
2.51257e-05
2.28117e-05
2.04381e-05
1.80061e-05
1.54011e-05
1.20074e-05
6.48167e-06
0
0
0
0
0
0
4.60486e-07
1.13482e-06
1.48094e-06
1.52609e-06
1.34085e-06
7.04209e-07
0
0
0
0
0
0
0
0
0
0
1.77337e-07
6.5704e-07
1.02706e-06
1.3001e-06
1.50197e-06
1.64619e-06
1.75068e-06
1.827e-06
1.88849e-06
1.91964e-06
1.92935e-06
1.86404e-06
1.67531e-06
1.46108e-06
)
;
    }
    ceiling
    {
        type            compressible::alphatWallFunction;
        Prt             0.85;
        value           nonuniform List<scalar> 
50
(
7.11478e-05
4.90655e-05
4.06397e-05
3.65816e-05
3.41736e-05
3.24278e-05
3.10418e-05
2.98928e-05
2.88975e-05
2.80128e-05
2.72017e-05
2.64352e-05
2.56884e-05
2.4943e-05
2.41851e-05
2.34048e-05
2.2597e-05
2.17604e-05
2.08973e-05
2.00123e-05
1.91115e-05
1.8202e-05
1.72903e-05
1.63849e-05
1.54887e-05
1.46111e-05
1.37565e-05
1.29284e-05
1.21283e-05
1.13565e-05
1.06143e-05
9.90247e-06
9.22134e-06
8.5705e-06
7.94948e-06
7.35691e-06
6.79268e-06
6.25428e-06
5.74435e-06
5.25634e-06
4.80198e-06
4.36365e-06
3.96551e-06
3.59656e-06
3.26646e-06
2.97834e-06
2.725e-06
2.56291e-06
2.44982e-06
2.60944e-06
)
;
    }
    inlet
    {
        type            calculated;
        value           nonuniform List<scalar> 
40
(
0.105877
0.105877
0.105877
0.105877
0.105876
0.105876
0.105876
0.105876
0.105876
0.105876
0.105876
0.105875
0.105875
0.105875
0.105875
0.105875
0.105875
0.105875
0.105874
0.105874
0.105874
0.105874
0.105874
0.105874
0.105873
0.105873
0.105873
0.105873
0.105873
0.105873
0.105873
0.105872
0.105872
0.105872
0.105872
0.105872
0.105872
0.105871
0.105871
0.105871
)
;
    }
    outlet
    {
        type            calculated;
        value           nonuniform List<scalar> 
40
(
9.39945e-05
0.000976635
0.00200129
0.00290155
0.00366723
0.00431253
0.0048336
0.00528021
0.00564905
0.00595001
0.00619196
0.00638233
0.00652731
0.00663203
0.00670079
0.00673726
0.0067446
0.0067255
0.00668191
0.00661622
0.00652982
0.00642347
0.0062992
0.00615788
0.00599976
0.00582456
0.00563163
0.00541987
0.00518774
0.00493313
0.00465333
0.00434484
0.00400315
0.0036225
0.00319549
0.00271086
0.00215383
0.00150398
0.000748638
0.000100001
)
;
    }
    fixedWalls
    {
        type            empty;
    }
    baffleFacesThermoBaffle1D_master
    {
        type            compressible::alphatWallFunction;
        Prt             0.85;
        value           nonuniform List<scalar> 
16
(
0
0
1.28699e-06
4.06902e-06
6.18771e-06
7.89434e-06
9.3504e-06
1.06345e-05
1.17819e-05
1.28176e-05
1.37546e-05
1.4648e-05
1.54603e-05
1.6376e-05
1.72893e-05
3.0727e-05
)
;
    }
    baffleFacesThermoBaffle1D_slave
    {
        type            compressible::alphatWallFunction;
        Prt             0.85;
        value           nonuniform List<scalar> 
16
(
5.13436e-06
1.75263e-05
2.51587e-05
3.07736e-05
3.53479e-05
3.90201e-05
4.20839e-05
4.47492e-05
4.71274e-05
4.92882e-05
5.1302e-05
5.32592e-05
5.52464e-05
5.74052e-05
5.9899e-05
6.31223e-05
)
;
    }
    baffleFacesThermoBaffle3D_master
    {
        type            compressible::alphatWallFunction;
        Prt             0.85;
        value           nonuniform List<scalar> 
16
(
0
0
0
0
1.80738e-07
1.40609e-06
2.34444e-06
3.1172e-06
3.59977e-06
3.99064e-06
3.98811e-06
3.89444e-06
3.81982e-06
2.98572e-06
3.20925e-06
1.49869e-05
)
;
    }
    baffleFacesThermoBaffle3D_slave
    {
        type            compressible::alphatWallFunction;
        Prt             0.85;
        value           nonuniform List<scalar> 
16
(
0
0
1.02378e-06
2.70955e-06
4.00132e-06
4.79969e-06
5.46308e-06
6.07141e-06
6.7141e-06
7.60284e-06
9.06934e-06
1.15726e-05
1.51817e-05
1.95959e-05
2.50486e-05
3.50051e-05
)
;
    }
}


// ************************************************************************* //
