/*--------------------------------*- C++ -*----------------------------------*\
| =========                 |                                                 |
| \\      /  F ield         | OpenFOAM: The Open Source CFD Toolbox           |
|  \\    /   O peration     | Version:  v1906                                 |
|   \\  /    A nd           | Web:      www.OpenFOAM.com                      |
|    \\/     M anipulation  |                                                 |
\*---------------------------------------------------------------------------*/
FoamFile
{
    version     2.0;
    format      ascii;
    class       volScalarField;
    location    "2500";
    object      epsilon;
}
// * * * * * * * * * * * * * * * * * * * * * * * * * * * * * * * * * * * * * //

dimensions      [0 2 -3 0 0 0 0];


internalField   nonuniform List<scalar> 
2000
(
1.91876
0.722752
0.447493
0.338322
0.27655
0.231412
0.194828
0.163506
0.135924
0.1113
0.0896211
0.0700165
0.0493647
0.0255738
0.00515489
0.000673866
0.00274774
0.00466604
0.00671045
0.00860166
0.0104788
0.0117647
0.0124781
0.0125937
0.0122408
0.0110195
0.00841468
0.00556853
0.00189908
0.00090874
0.0024587
0.00368052
0.00509338
0.00637812
0.00758894
0.00867576
0.0097358
0.0105723
0.0112494
0.011766
0.0121555
0.0124357
0.0126375
0.0127817
0.0128943
0.0129415
0.0129399
0.0127768
0.0123571
0.0118873
0.103696
0.172349
0.154362
0.130776
0.112776
0.0983939
0.0860762
0.0750037
0.064714
0.0549294
0.0455401
0.0363509
0.0270645
0.0184829
0.0156506
0.00104961
0.00197628
0.00279058
0.00349322
0.00410938
0.00466941
0.00509145
0.00534552
0.0054182
0.00524841
0.00477542
0.00401074
0.00319584
0.00214106
0.000923768
0.00186527
0.00236165
0.00285055
0.00324659
0.00362308
0.00398093
0.0043154
0.00459683
0.00483373
0.00501235
0.00514826
0.0052419
0.00530401
0.00533972
0.00535286
0.00534732
0.00532972
0.00528555
0.00523997
0.00519775
0.0284987
0.0658388
0.0774555
0.0759919
0.0709655
0.0652544
0.0594337
0.0536535
0.0479019
0.042143
0.0363836
0.030682
0.025327
0.0216557
0.029352
0.00206591
0.00201218
0.0025097
0.00298524
0.0034241
0.00381866
0.00413366
0.00433938
0.00440153
0.00427553
0.00391511
0.00339441
0.0028881
0.00322054
0.00150125
0.00179179
0.00202759
0.00228379
0.00254693
0.00281711
0.00308038
0.00332262
0.00353123
0.00370365
0.00383353
0.00392776
0.00398889
0.00402331
0.00403415
0.00402963
0.00401469
0.00399702
0.00398003
0.00398188
0.00399939
0.0173443
0.035791
0.0473492
0.0513138
0.0512605
0.0494577
0.0467447
0.043575
0.0401176
0.0364606
0.0327062
0.0290587
0.0260568
0.0256579
0.043636
0.00313922
0.00224546
0.0025457
0.00293982
0.00332705
0.003683
0.00397092
0.00416117
0.00421673
0.00410848
0.00380962
0.00339134
0.00310672
0.00413871
0.00213474
0.00179382
0.00187897
0.00205114
0.00226925
0.00250731
0.00274408
0.0029631
0.00315361
0.00330896
0.00342531
0.0035065
0.0035562
0.00357817
0.00357937
0.00356609
0.0035454
0.00352598
0.00351586
0.00353167
0.00357078
0.0140307
0.0245711
0.0331492
0.0379069
0.039744
0.039825
0.0388911
0.0372983
0.0352994
0.0330437
0.0306999
0.0285728
0.0274
0.0297414
0.0584732
0.00418612
0.00255993
0.00271251
0.00306259
0.0034399
0.00378798
0.00406772
0.00425126
0.0043059
0.00421717
0.0039728
0.00365326
0.00355287
0.00495202
0.00274943
0.00182953
0.00179984
0.00192884
0.00212822
0.00235761
0.0025899
0.00280512
0.00299207
0.0031431
0.0032553
0.00333149
0.00337589
0.00339151
0.00338724
0.00336907
0.0033444
0.00332226
0.0033116
0.00332823
0.00337395
0.0126109
0.0193788
0.0256095
0.0299334
0.0323575
0.0333785
0.0334502
0.0328967
0.0319099
0.0306823
0.0294273
0.0285261
0.0288652
0.0336975
0.0727268
0.00519423
0.00291812
0.002957
0.00328909
0.00367316
0.00403268
0.00432125
0.00451319
0.00457886
0.00451469
0.0043157
0.00407828
0.00410156
0.0055054
0.00332282
0.00187117
0.00176354
0.0018622
0.00205509
0.00228715
0.00252388
0.00274307
0.00293266
0.00308394
0.00319481
0.00326817
0.00330872
0.00332088
0.00331332
0.00329228
0.00326517
0.00324078
0.00322708
0.0032364
0.00327385
0.0118625
0.0165848
0.0212247
0.0248969
0.0273774
0.0288281
0.0294997
0.0296175
0.0293693
0.028929
0.0285499
0.0286691
0.0303329
0.0375018
0.0863689
0.00618266
0.00329812
0.00325903
0.00359214
0.00399924
0.00438448
0.00469519
0.00490777
0.00499635
0.00496371
0.00480853
0.00463064
0.00473551
0.00600163
0.00381213
0.00193328
0.00175625
0.0018325
0.00202723
0.0022681
0.00251365
0.00273932
0.00293188
0.00308358
0.00319355
0.00326514
0.00330329
0.00331366
0.00330435
0.00328193
0.00325391
0.00322811
0.0032109
0.00320883
0.0032126
0.0114138
0.0149152
0.0184865
0.0215629
0.0239023
0.0255186
0.026537
0.0271106
0.0273968
0.0275752
0.0279157
0.0289146
0.0317787
0.0411212
0.0996292
0.00715998
0.0037023
0.00361481
0.00397068
0.00441722
0.00483947
0.00518119
0.00542226
0.00554568
0.00555181
0.00544201
0.0053026
0.00542921
0.0064907
0.00425098
0.0020168
0.00176846
0.00183355
0.00203626
0.00229081
0.00254779
0.00278032
0.00297468
0.00312545
0.00323322
0.00330202
0.00333753
0.00334637
0.00333561
0.00331222
0.00328344
0.00325608
0.00323503
0.00322388
0.00321219
0.0111211
0.0138405
0.0166788
0.0192704
0.0214116
0.0230608
0.0242742
0.0251557
0.0258397
0.0265074
0.0274479
0.0292146
0.0331713
0.0445864
0.112625
0.00812227
0.00414445
0.00403614
0.0044424
0.0049447
0.00541032
0.00578486
0.00605608
0.0062204
0.00627392
0.00621998
0.00611312
0.0062044
0.00704323
0.00454442
0.00211777
0.0018022
0.00186323
0.00208393
0.00235609
0.00262457
0.0028618
0.00305538
0.00320266
0.00330558
0.0033695
0.00340103
0.0034069
0.00339394
0.00336904
0.00333884
0.00330946
0.00328428
0.00326574
0.00324595
0.010919
0.0131105
0.0154326
0.017644
0.0195872
0.0212063
0.0225235
0.0236133
0.0245954
0.025653
0.0270972
0.0295399
0.034506
0.0479225
0.125429
0.00906659
0.00464147
0.00455474
0.00504606
0.00561699
0.00612202
0.00651914
0.00681191
0.00701134
0.00712365
0.00714666
0.00710123
0.00716417
0.00785851
0.00479033
0.00221459
0.00185532
0.00193125
0.00217778
0.00247009
0.00274797
0.0029851
0.00317274
0.00331116
0.00340466
0.00346024
0.00348506
0.00348582
0.00346962
0.00344243
0.00341041
0.00337857
0.00334925
0.00332482
0.00330038
0.0107739
0.0125946
0.0145443
0.0164608
0.0182264
0.0197888
0.0211556
0.022386
0.0235914
0.02496
0.0268271
0.0298677
0.0357781
0.0511619
0.138265
0.00998553
0.00522614
0.00523335
0.00584991
0.00648807
0.00700857
0.00739898
0.00768823
0.00790749
0.00807938
0.00821147
0.00830565
0.00848024
0.00932852
0.00478888
0.00234157
0.00193888
0.00204943
0.00233334
0.00264519
0.00292505
0.0031524
0.00332485
0.00344651
0.00352492
0.00356804
0.00358332
0.00357752
0.00355647
0.00352622
0.00349167
0.00345688
0.00342351
0.00339427
0.00336668
0.0106669
0.0122192
0.0138947
0.0155824
0.0171965
0.0186937
0.0200783
0.0214019
0.0227731
0.0243872
0.0266054
0.0301717
0.0369732
0.0543407
0.151595
0.0109205
0.00595241
0.0061949
0.00696465
0.00763101
0.00810803
0.00843628
0.00867669
0.00888424
0.00910432
0.00937095
0.00972269
0.0103409
0.0121827
0.00471769
0.00245316
0.00207798
0.00224859
0.00257931
0.00289986
0.00316437
0.00336592
0.00351044
0.00360653
0.00366343
0.00368956
0.00369222
0.00367762
0.00365028
0.0036158
0.00357788
0.00353967
0.00350229
0.00346891
0.00343877
0.0105864
0.0119401
0.0134104
0.0149204
0.0164079
0.0178407
0.0192237
0.0206066
0.0220976
0.0238997
0.0263996
0.0304144
0.0380496
0.0574788
0.166063
0.0118223
0.00701293
0.00768202
0.00855801
0.00913218
0.00945306
0.00963237
0.00976029
0.00990818
0.0101427
0.010543
0.0112502
0.012726
0.0171285
0.00466583
0.00260218
0.00231978
0.0025924
0.00295653
0.0032553
0.00347415
0.00362737
0.00372842
0.00378861
0.00381719
0.00382157
0.00380874
0.0037824
0.0037474
0.0037075
0.00366538
0.0036233
0.00358192
0.00354478
0.0035123
0.0105252
0.0117298
0.0130447
0.014416
0.0157994
0.017172
0.018542
0.0199586
0.0215306
0.0234664
0.0261746
0.0305398
0.0389107
0.0605399
0.18281
0.012899
0.00898976
0.0101404
0.0108524
0.011068
0.011052
0.0109662
0.0109052
0.0109362
0.011134
0.0116252
0.0126987
0.0153231
0.0246151
0.00412781
0.00270343
0.00279203
0.0031963
0.00351926
0.00372746
0.00385693
0.00393415
0.00397509
0.00398879
0.00398263
0.00396102
0.0039289
0.00388919
0.00384486
0.00379836
0.00375126
0.00370492
0.00365949
0.00361883
0.00358404
0.0104784
0.0115701
0.0127666
0.0140297
0.0153279
0.0166462
0.0179959
0.0194261
0.0210447
0.0230609
0.0258932
0.030471
0.0393349
0.0628891
0.203709
0.014041
0.0137047
0.0143393
0.0140471
0.0134475
0.0128628
0.0123879
0.0120597
0.0119148
0.0120143
0.0125106
0.0138544
0.0177364
0.0366728
0.00424024
0.00343017
0.00397881
0.00422601
0.00430644
0.00431777
0.00430442
0.00427779
0.00424349
0.00420205
0.00415525
0.00410416
0.00405046
0.00399537
0.0039402
0.00388601
0.00383319
0.00378224
0.00373275
0.00368868
0.00365159
0.0104426
0.011449
0.0125553
0.0137343
0.0149634
0.0162335
0.017558
0.0189854
0.0206195
0.0226631
0.0255234
0.0301148
0.0390199
0.063186
0.231602
0.0410889
0.0262088
0.0209627
0.0180469
0.0161153
0.0147671
0.0138156
0.013168
0.0127984
0.0127412
0.0131165
0.0144688
0.0194478
0.0692735
0.0162033
0.00943922
0.00671386
0.00575118
0.00527831
0.00499044
0.00479216
0.00464366
0.00452446
0.0044224
0.00433137
0.00424811
0.00417087
0.00409879
0.00403146
0.00396858
0.00390941
0.00385354
0.00379993
0.00375254
0.00371314
0.0104158
0.0113583
0.0123967
0.013511
0.0146847
0.0159125
0.0172088
0.0186196
0.0202416
0.0222619
0.0250494
0.0294056
0.0374313
0.0563973
0.132982
0.0745472
0.0410884
0.0280193
0.0220373
0.0186901
0.0165711
0.0151448
0.0141744
0.0135627
0.0132997
0.0134608
0.0144037
0.017347
0.0278888
0.0188134
0.0124002
0.00894348
0.0071983
0.00624461
0.00566794
0.00528588
0.00501401
0.0048083
0.00464401
0.00450737
0.00439043
0.00428829
0.00419792
0.0041173
0.00404482
0.00397866
0.00391754
0.00385975
0.0038091
0.0037674
0.0103962
0.0112925
0.0122813
0.0133471
0.0144773
0.0156686
0.016935
0.0183182
0.0199048
0.0218581
0.0244882
0.0284214
0.0350726
0.0481107
0.0773699
0.0636421
0.0435797
0.0316105
0.0248089
0.0207155
0.0180737
0.0162791
0.0150345
0.0141983
0.0137217
0.0136411
0.0140891
0.0155669
0.0185786
0.016425
0.0127598
0.0099999
0.00819652
0.00703928
0.00627601
0.00575025
0.00537139
0.00508592
0.00486198
0.00468039
0.00452943
0.00440158
0.00429193
0.004197
0.00411403
0.00404022
0.00397348
0.00391139
0.00385746
0.00381345
0.0103829
0.011248
0.0122028
0.0132343
0.0143317
0.0154922
0.0167282
0.0180758
0.019609
0.0214633
0.0238815
0.0273096
0.0325855
0.0412759
0.0543085
0.0510559
0.0409025
0.0321661
0.0261089
0.0219981
0.0191648
0.017162
0.0157254
0.0147088
0.0140435
0.0137227
0.0137877
0.0143752
0.0152907
0.014466
0.0123792
0.0103612
0.00877963
0.00761753
0.00677611
0.00616101
0.00570198
0.0053498
0.00507231
0.00484836
0.00466411
0.00451031
0.00438062
0.00427044
0.00417608
0.00409389
0.00402106
0.00395445
0.00389713
0.00385079
0.0103754
0.0112227
0.0121576
0.0131677
0.0142424
0.0153782
0.0165846
0.0178913
0.0193589
0.0210941
0.023276
0.0261972
0.0302993
0.0360993
0.0427619
0.0422327
0.037058
0.031215
0.0263215
0.022608
0.0198443
0.0177856
0.0162465
0.0151052
0.0142914
0.0137756
0.0135543
0.013618
0.0137535
0.0132091
0.0118734
0.010399
0.0090832
0.00800841
0.0071642
0.00650806
0.00599726
0.00559445
0.00527188
0.00500976
0.00479393
0.00461447
0.00446428
0.00433802
0.00423133
0.00413994
0.0040604
0.0039889
0.00392797
0.00387922
0.0103734
0.0112158
0.0121441
0.0131453
0.0142074
0.0153251
0.016504
0.0177674
0.0191623
0.0207694
0.0227132
0.0251711
0.0283431
0.0322923
0.0360937
0.036204
0.0336333
0.0296755
0.0259097
0.0227281
0.0201827
0.0181796
0.0166146
0.0154027
0.0144844
0.0138233
0.0133939
0.0131508
0.0129403
0.0124062
0.0114432
0.0103179
0.00922622
0.00826327
0.00745519
0.00679245
0.00625412
0.00581644
0.00545833
0.0051633
0.0049185
0.00471429
0.00454348
0.00440045
0.00428051
0.00417901
0.00409199
0.00401509
0.00395017
0.00389883
0.0103769
0.0112273
0.0121628
0.0131676
0.0142276
0.0153342
0.0164894
0.0177092
0.0190291
0.0205072
0.0222253
0.0242818
0.0267433
0.029506
0.0318639
0.0321443
0.0307345
0.0280589
0.0251891
0.0225448
0.0202744
0.0183921
0.0168569
0.0156192
0.0146359
0.0138733
0.0133
0.0128662
0.0124663
0.0119117
0.0111243
0.0102109
0.009287
0.00842851
0.00767096
0.00702157
0.00647355
0.00601449
0.00563007
0.00530791
0.00503737
0.0048099
0.00461879
0.00445857
0.00432456
0.004212
0.00411663
0.00403365
0.00396421
0.00390998
0.0103864
0.0112588
0.0122159
0.013238
0.0143071
0.0154107
0.0165462
0.0177244
0.0189703
0.0203237
0.0218359
0.0235547
0.0254792
0.0274635
0.0290201
0.029299
0.0284471
0.0265839
0.0243824
0.0221984
0.0202085
0.0184754
0.0170039
0.0157732
0.0147568
0.0139279
0.0132575
0.0127019
0.0121883
0.0116079
0.0109047
0.0101182
0.00931181
0.00853907
0.00783238
0.0072053
0.00665925
0.00618898
0.0057863
0.00544268
0.00515002
0.00490127
0.00469063
0.00451313
0.00436443
0.00423992
0.00413527
0.00404541
0.00397076
0.00391324
0.0104026
0.0113126
0.0123076
0.0133623
0.0144529
0.0155625
0.0166842
0.0178235
0.0189976
0.0202338
0.0215618
0.0229992
0.0245155
0.0259723
0.0270417
0.0272613
0.0266883
0.0253302
0.0236076
0.0217942
0.0200563
0.0184767
0.0170856
0.015883
0.0148565
0.0139878
0.0132536
0.0126188
0.0120326
0.0114281
0.0107644
0.0100528
0.00932586
0.00861862
0.00795655
0.00735389
0.00681589
0.00634148
0.00592696
0.00556697
0.00525583
0.00498812
0.00475913
0.00456467
0.00440094
0.00426376
0.00414893
0.00405135
0.0039707
0.00390935
0.0104265
0.0113926
0.0124448
0.0135495
0.0146759
0.0158015
0.0169155
0.0180194
0.0191252
0.0202515
0.0214153
0.0226175
0.0238184
0.0249026
0.0256501
0.0257932
0.0253589
0.0243125
0.022925
0.0213978
0.019873
0.0184362
0.017129
0.0159656
0.0149443
0.0140547
0.0132795
0.0125928
0.011958
0.0113322
0.0106854
0.0100169
0.00934207
0.00868241
0.00805636
0.00747625
0.00694852
0.00647432
0.00605261
0.00568047
0.00535424
0.00507001
0.00482419
0.00461346
0.00443471
0.00428438
0.0041586
0.00405248
0.00396498
0.00389914
0.0104598
0.0115046
0.0126374
0.0138132
0.0149917
0.0161442
0.0172566
0.0183282
0.0193685
0.0203913
0.0214075
0.0224098
0.0233603
0.0241685
0.0246858
0.0247499
0.0243766
0.0235202
0.0223632
0.0210503
0.0196977
0.0183847
0.0171571
0.0160367
0.0150293
0.0141309
0.0133302
0.0126085
0.0119401
0.011296
0.010654
0.0100089
0.00936667
0.00873991
0.00814106
0.00757973
0.00706203
0.0065901
0.00616424
0.00578321
0.00544483
0.00514645
0.0048855
0.00465951
0.00446611
0.00430244
0.00416515
0.00404978
0.00395458
0.00388351
0.0105049
0.011657
0.0128998
0.0141723
0.0154219
0.0166131
0.0177294
0.0187704
0.019746
0.0206691
0.0215475
0.0223775
0.023122
0.0237143
0.024054
0.0240423
0.0236793
0.0229368
0.0219341
0.0207771
0.0195583
0.0183475
0.0171898
0.0161106
0.0151204
0.0142202
0.0134035
0.0126576
0.0119644
0.0113038
0.0106599
0.0100257
0.00940248
0.00879701
0.00821725
0.00767017
0.00716082
0.00669157
0.00626324
0.0058756
0.00552741
0.00521704
0.0049427
0.00470265
0.00449526
0.00431838
0.00416929
0.00404411
0.00394049
0.00386336
0.0105651
0.011862
0.0132529
0.0146542
0.0159971
0.0172389
0.018363
0.0193724
0.0202811
0.0211048
0.0218535
0.0225235
0.0230927
0.023506
0.0236976
0.0236131
0.0232269
0.0225472
0.0216434
0.020595
0.0194755
0.0183447
0.0172443
0.0162006
0.015227
0.0143277
0.0135001
0.012736
0.012023
0.0113471
0.0106967
0.010065
0.0094509
0.00885758
0.00828979
0.00775225
0.00724878
0.00678151
0.00635131
0.00595841
0.00560215
0.00528157
0.00499547
0.00474267
0.00452217
0.0043325
0.00417157
0.00403629
0.00392363
0.0038396
0.0106452
0.0121375
0.0137275
0.0152983
0.0167602
0.0180637
0.0191961
0.0201687
0.0210035
0.0217231
0.0223424
0.0228629
0.023268
0.0235256
0.0235864
0.0234212
0.0229998
0.0223426
0.0214952
0.0205168
0.0194663
0.0183931
0.0173361
0.0163199
0.015359
0.01446
0.013623
0.0128432
0.0121126
0.0114213
0.0107609
0.0101255
0.00951308
0.00892456
0.00836254
0.00782999
0.00732949
0.00686274
0.00643042
0.00603284
0.00566964
0.00534022
0.00504376
0.00477947
0.00454686
0.00434502
0.00417248
0.00402705
0.00390493
0.00381316
0.0107526
0.0125114
0.0143703
0.0161631
0.0177727
0.0191463
0.0202816
0.021205
0.0219524
0.0225567
0.0230404
0.0234117
0.0236626
0.0237707
0.0237084
0.0234497
0.0229833
0.0223201
0.0214956
0.0205545
0.0195455
0.0185104
0.0174816
0.0164824
0.0155278
0.0146255
0.0137777
0.012982
0.0122335
0.0115254
0.0108517
0.0102076
0.00959072
0.00900087
0.00843913
0.00790716
0.00740652
0.00693833
0.00650298
0.00610065
0.00573101
0.00539368
0.00508795
0.00481328
0.00456956
0.0043563
0.00417257
0.00401715
0.00388538
0.00378502
0.0108987
0.0130274
0.0152541
0.0173368
0.0191247
0.0205697
0.0216922
0.0225438
0.0231807
0.0236504
0.0239848
0.024199
0.0242937
0.0242561
0.0240656
0.0237077
0.0231752
0.022482
0.0216532
0.0207252
0.019734
0.0187155
0.0176986
0.0167043
0.0157472
0.0148356
0.0139729
0.0131585
0.0123896
0.011662
0.0109712
0.0103136
0.00968687
0.00909015
0.00852365
0.00798798
0.00748389
0.00701191
0.0065721
0.00616434
0.00578825
0.00544342
0.00512914
0.00484495
0.004591
0.00436709
0.00417273
0.0040076
0.0038662
0.00375644
0.0111024
0.0137589
0.0164978
0.0189576
0.0209512
0.0224541
0.0235306
0.0242718
0.0247619
0.0250672
0.0252295
0.0252702
0.0252
0.0250064
0.0246809
0.0242134
0.0236013
0.0228552
0.0219962
0.0210528
0.020055
0.0190325
0.01801
0.0170066
0.0160357
0.015106
0.0142216
0.0133831
0.0125893
0.0118377
0.0111251
0.0104488
0.0098068
0.00919787
0.00862158
0.00807787
0.00756678
0.00708828
0.00664207
0.00622769
0.00584454
0.00549214
0.00516958
0.00487639
0.00461288
0.00437903
0.00417451
0.00399993
0.00384925
0.00372919
0.0113972
0.0148359
0.0183044
0.0212498
0.0234598
0.0249775
0.0259457
0.0265141
0.0268028
0.0269
0.0268564
0.0266988
0.0264407
0.0260773
0.025602
0.0250085
0.0242961
0.0234738
0.0225589
0.0215743
0.0205451
0.0194959
0.0184481
0.0174186
0.0164198
0.01546
0.014544
0.0136731
0.0128471
0.0120649
0.0113243
0.0106231
0.00995973
0.00933274
0.00874132
0.00818483
0.00766274
0.0071745
0.00671938
0.00629657
0.00590518
0.00554454
0.00521343
0.00491141
0.00463864
0.00439512
0.00418085
0.00399713
0.00383769
0.003706
0.0118484
0.0165079
0.0210424
0.024592
0.0269816
0.0284132
0.0291628
0.0294604
0.0294659
0.029295
0.0289935
0.0285995
0.0281239
0.0275647
0.0269158
0.026172
0.0253333
0.0244069
0.0234067
0.0223517
0.0212627
0.0201604
0.0190632
0.0179861
0.0169405
0.0159345
0.0149725
0.0140569
0.013188
0.0123656
0.0115882
0.0108541
0.0101618
0.00950972
0.00889682
0.00832194
0.00778402
0.00728198
0.00681466
0.0063808
0.0059792
0.00560891
0.00526835
0.0049569
0.00467466
0.00442157
0.00419737
0.00400434
0.00383693
0.00369224
0.0125992
0.0193026
0.0254286
0.029657
0.0320664
0.0332014
0.0335428
0.0334182
0.0330246
0.0324875
0.031861
0.0311745
0.0304355
0.02964
0.0287803
0.0278504
0.0268488
0.0257808
0.0246575
0.0234945
0.0223091
0.0211192
0.0199406
0.0187868
0.0176681
0.0165922
0.0155637
0.0145848
0.0136569
0.0127799
0.0119529
0.0111742
0.0104425
0.00975603
0.00911325
0.00851257
0.00795237
0.00743101
0.00694681
0.00649803
0.00608305
0.00570057
0.00534854
0.0050263
0.00473348
0.00446994
0.00423516
0.00403248
0.00385655
0.0036974
0.0140211
0.0244898
0.0329773
0.0377119
0.0396855
0.0401078
0.0397251
0.0389319
0.0379634
0.0369282
0.0358706
0.0348056
0.0337306
0.0326342
0.0315038
0.0303299
0.0291086
0.0278422
0.0265395
0.0252131
0.023878
0.0225495
0.0212418
0.0199669
0.0187346
0.0175526
0.0164249
0.0153535
0.0143407
0.0133863
0.0124893
0.0116481
0.010861
0.0101258
0.00944056
0.00880297
0.00821078
0.00766164
0.00715324
0.00668323
0.00624951
0.00585027
0.00548287
0.00514669
0.00484066
0.00456481
0.00431757
0.00410351
0.00391906
0.00374184
0.0173359
0.0356872
0.0472222
0.0513516
0.0517364
0.0506626
0.0489756
0.0471368
0.0453134
0.0435667
0.041906
0.0403186
0.0387815
0.0372698
0.0357612
0.0342398
0.0326972
0.0311329
0.0295528
0.0279677
0.0263908
0.0248361
0.0233169
0.0218444
0.0204282
0.0190761
0.0177917
0.0165764
0.0154327
0.0143603
0.0133574
0.0124217
0.0115509
0.010742
0.0099922
0.00929821
0.00865686
0.00806478
0.0075189
0.00701593
0.00655318
0.00612823
0.00573728
0.00538055
0.00505563
0.00476282
0.00449905
0.00426941
0.00407445
0.00387339
0.0284906
0.0656663
0.0775536
0.0767325
0.0727733
0.068527
0.0645513
0.0609726
0.0577797
0.054917
0.0523179
0.0499178
0.047658
0.0454882
0.0433699
0.0412765
0.039193
0.037115
0.0350469
0.0329987
0.0309838
0.0290164
0.0271103
0.0252772
0.0235269
0.0218692
0.0203061
0.0188372
0.017465
0.0161874
0.0150009
0.0139018
0.0128861
0.0119493
0.0110868
0.0102937
0.00956533
0.00889649
0.00828316
0.00772024
0.00720464
0.00673285
0.0062985
0.005905
0.0055474
0.00522612
0.0049359
0.004681
0.00446919
0.00423425
0.10368
0.172081
0.155529
0.134015
0.118537
0.107346
0.0986963
0.0916715
0.0857865
0.0807251
0.0762596
0.0722191
0.0684717
0.064917
0.0614846
0.0581282
0.0548232
0.0515626
0.0483527
0.0452085
0.0421493
0.0391949
0.0363634
0.0336708
0.0311278
0.0287534
0.0265439
0.0244897
0.0225913
0.0208416
0.0192322
0.0177556
0.0164038
0.0151683
0.0140407
0.0130119
0.0120742
0.0112185
0.0104394
0.00972696
0.00907912
0.00848902
0.00794365
0.00745949
0.00702399
0.00663788
0.00628913
0.00598609
0.00573738
0.00546329
1.91875
0.727981
0.461467
0.361913
0.310668
0.276911
0.252039
0.232666
0.216765
0.203295
0.191483
0.180779
0.170766
0.161174
0.151823
0.142604
0.133488
0.124493
0.115674
0.107105
0.0988561
0.0909972
0.0835778
0.0766478
0.0702014
0.0642737
0.0588533
0.0539209
0.049443
0.0453817
0.0417067
0.0383873
0.0353921
0.0326902
0.0302529
0.0280515
0.0260643
0.0242643
0.0226431
0.0211662
0.0198541
0.0186452
0.0175932
0.0166581
0.0158512
0.0151721
0.0145908
0.0142307
0.0139811
0.0143418
)
;

boundaryField
{
    floor
    {
        Cmu             0.09;
        kappa           0.41;
        E               9.8;
        type            epsilonWallFunction;
        value           nonuniform List<scalar> 
50
(
1.91876
0.722752
0.447493
0.338322
0.27655
0.231412
0.194828
0.163506
0.135924
0.1113
0.0896211
0.0700165
0.0493647
0.0255738
0.00515489
0.000673866
0.00274774
0.00466604
0.00671045
0.00860166
0.0104788
0.0117647
0.0124781
0.0125937
0.0122408
0.0110195
0.00841468
0.00556853
0.00189908
0.00090874
0.0024587
0.00368052
0.00509338
0.00637812
0.00758894
0.00867576
0.0097358
0.0105723
0.0112494
0.011766
0.0121555
0.0124357
0.0126375
0.0127817
0.0128943
0.0129415
0.0129399
0.0127768
0.0123571
0.0118873
)
;
        lowReCorrection 0;
    }
    ceiling
    {
        Cmu             0.09;
        kappa           0.41;
        E               9.8;
        type            epsilonWallFunction;
        value           nonuniform List<scalar> 
50
(
1.91875
0.727981
0.461467
0.361913
0.310668
0.276911
0.252039
0.232666
0.216765
0.203295
0.191483
0.180779
0.170766
0.161174
0.151823
0.142604
0.133488
0.124493
0.115674
0.107105
0.0988561
0.0909972
0.0835778
0.0766478
0.0702014
0.0642737
0.0588533
0.0539209
0.049443
0.0453817
0.0417067
0.0383873
0.0353921
0.0326902
0.0302529
0.0280515
0.0260643
0.0242643
0.0226431
0.0211662
0.0198541
0.0186452
0.0175932
0.0166581
0.0158512
0.0151721
0.0145908
0.0142307
0.0139811
0.0143418
)
;
        lowReCorrection 0;
    }
    inlet
    {
        type            fixedValue;
        value           uniform 0.01;
    }
    outlet
    {
        type            zeroGradient;
    }
    fixedWalls
    {
        type            empty;
    }
    baffleFacesThermoBaffle1D_master
    {
        Cmu             0.09;
        kappa           0.41;
        E               9.8;
        type            epsilonWallFunction;
        value           nonuniform List<scalar> 
16
(
0.000673866
0.00104961
0.00206591
0.00313922
0.00418612
0.00519423
0.00618266
0.00715998
0.00812227
0.00906659
0.00998553
0.0109205
0.0118223
0.012899
0.014041
0.0410889
)
;
        lowReCorrection 0;
    }
    baffleFacesThermoBaffle1D_slave
    {
        Cmu             0.09;
        kappa           0.41;
        E               9.8;
        type            epsilonWallFunction;
        value           nonuniform List<scalar> 
16
(
0.00515489
0.0156506
0.029352
0.043636
0.0584732
0.0727268
0.0863689
0.0996292
0.112625
0.125429
0.138265
0.151595
0.166063
0.18281
0.203709
0.231602
)
;
        lowReCorrection 0;
    }
    baffleFacesThermoBaffle3D_master
    {
        Cmu             0.09;
        kappa           0.41;
        E               9.8;
        type            epsilonWallFunction;
        value           nonuniform List<scalar> 
16
(
0.00090874
0.000923768
0.00150125
0.00213474
0.00274943
0.00332282
0.00381213
0.00425098
0.00454442
0.00479033
0.00478888
0.00471769
0.00466583
0.00412781
0.00424024
0.0162033
)
;
        lowReCorrection 0;
    }
    baffleFacesThermoBaffle3D_slave
    {
        Cmu             0.09;
        kappa           0.41;
        E               9.8;
        type            epsilonWallFunction;
        value           nonuniform List<scalar> 
16
(
0.00189908
0.00214106
0.00322054
0.00413871
0.00495202
0.0055054
0.00600163
0.0064907
0.00704323
0.00785851
0.00932852
0.0121827
0.0171285
0.0246151
0.0366728
0.0692735
)
;
        lowReCorrection 0;
    }
}


// ************************************************************************* //
