/*--------------------------------*- C++ -*----------------------------------*\
| =========                 |                                                 |
| \\      /  F ield         | OpenFOAM: The Open Source CFD Toolbox           |
|  \\    /   O peration     | Version:  v1906                                 |
|   \\  /    A nd           | Web:      www.OpenFOAM.com                      |
|    \\/     M anipulation  |                                                 |
\*---------------------------------------------------------------------------*/
FoamFile
{
    version     2.0;
    format      ascii;
    class       volScalarField;
    location    "2500";
    object      k;
}
// * * * * * * * * * * * * * * * * * * * * * * * * * * * * * * * * * * * * * //

dimensions      [0 2 -2 0 0 0 0];


internalField   nonuniform List<scalar> 
2000
(
0.0963833
0.0502706
0.0365184
0.0303069
0.0264954
0.0235277
0.0209776
0.0186643
0.0165013
0.0144428
0.0125005
0.0106036
0.00839974
0.00541815
0.00213921
0.000551015
0.00122456
0.00174298
0.00222072
0.00262048
0.00298904
0.00322882
0.00335807
0.00337877
0.00331534
0.003091
0.0025822
0.00196124
0.00109959
0.000672062
0.00113634
0.00148733
0.00184681
0.00214561
0.00240927
0.00263412
0.00284444
0.00300512
0.00313206
0.00322719
0.00329799
0.00334846
0.00338455
0.00341021
0.00343013
0.00343838
0.003438
0.00340894
0.00333361
0.00324857
0.0992603
0.0838297
0.0704473
0.061471
0.0548868
0.0494732
0.0447084
0.0403414
0.0362133
0.0322152
0.0282473
0.0241294
0.0194999
0.013499
0.00534265
0.000881916
0.00255285
0.00359003
0.00454899
0.00536779
0.00606844
0.00659173
0.00689928
0.00695655
0.00669303
0.00604334
0.00497107
0.00359504
0.00141821
0.000809825
0.00194871
0.00255178
0.00323864
0.00386657
0.00443932
0.0049435
0.00539543
0.00576524
0.00606999
0.0063137
0.006506
0.00665451
0.00676926
0.00685853
0.00692961
0.0069851
0.00702496
0.00703005
0.0069878
0.00692426
0.0991737
0.0922523
0.0828489
0.0746635
0.0678254
0.0619072
0.0565708
0.0515922
0.0468023
0.0420611
0.0372261
0.0320954
0.0263249
0.019102
0.00812506
0.0013851
0.00359382
0.00484402
0.00591212
0.00683277
0.00761038
0.00818553
0.00849159
0.00850959
0.00814013
0.00732123
0.00608878
0.00457612
0.001862
0.00111933
0.00279504
0.00348682
0.00419967
0.00489316
0.0055477
0.0061471
0.00669027
0.00715431
0.00754091
0.00785187
0.00809663
0.00828399
0.00842492
0.00852913
0.00860604
0.00866213
0.00870205
0.0087181
0.00871439
0.00869465
0.0991376
0.0947956
0.0882173
0.0814414
0.0751541
0.069391
0.0640171
0.0588917
0.0538757
0.0488356
0.0436256
0.0380503
0.03177
0.0238943
0.0105836
0.00183072
0.00439419
0.00579708
0.00695005
0.00793962
0.00875866
0.00934959
0.00962949
0.00959465
0.00914063
0.00822734
0.0069027
0.00529926
0.00220108
0.00141526
0.00335033
0.0040829
0.0048108
0.00554523
0.00625938
0.00692906
0.0075392
0.00807049
0.00851638
0.00887694
0.00916033
0.00937597
0.00953521
0.00964889
0.00972819
0.00978229
0.0098199
0.00984366
0.00986764
0.00989229
0.0991327
0.095844
0.09093
0.0853861
0.0798277
0.0744619
0.0692878
0.0642369
0.0592118
0.0540984
0.0487609
0.0430089
0.0364829
0.0281267
0.0128639
0.00221793
0.00509304
0.00662845
0.00786407
0.00891908
0.00977887
0.0103822
0.0106437
0.010561
0.0100375
0.00904392
0.00763131
0.00592274
0.00248079
0.00167524
0.00376221
0.00449872
0.00524201
0.00601082
0.0067769
0.00750746
0.00817579
0.00876288
0.00925812
0.00966035
0.00997672
0.010217
0.0103929
0.0105163
0.0105997
0.0106541
0.0106908
0.0107176
0.0107554
0.0108103
0.0991448
0.0963984
0.0924811
0.0878728
0.083005
0.0781034
0.0732326
0.0683734
0.0634627
0.0584089
0.0530874
0.0473064
0.0406665
0.0319225
0.0148775
0.00256107
0.00573306
0.00740062
0.00872602
0.00985467
0.0107668
0.0113965
0.0116572
0.0115446
0.0109651
0.00988932
0.00835729
0.00647322
0.00266235
0.00190066
0.00407097
0.00480397
0.00556151
0.00636469
0.0071811
0.0079668
0.00868774
0.00932345
0.00986112
0.0102993
0.0106448
0.0109077
0.0111001
0.0112352
0.011326
0.0113845
0.0114235
0.0114521
0.0114894
0.0115477
0.0991642
0.0967481
0.093464
0.0895443
0.0852663
0.0808192
0.076286
0.0716767
0.0669523
0.0620393
0.0568215
0.0510984
0.0444187
0.0353462
0.0166842
0.00287645
0.00633445
0.00814083
0.00957265
0.010792
0.0117759
0.0124544
0.0127378
0.0126191
0.0120002
0.0108387
0.00914406
0.00697226
0.00282002
0.00208287
0.00430544
0.00503171
0.00580479
0.00664684
0.00751367
0.00835143
0.00912073
0.00979879
0.0103724
0.010841
0.0112118
0.0114952
0.0117045
0.0118535
0.0119551
0.0120224
0.0120674
0.0120982
0.0121248
0.0121309
0.0991871
0.0969968
0.0941412
0.0907311
0.0869382
0.0829044
0.0787082
0.0743718
0.0698725
0.0651491
0.0600896
0.0544791
0.0478074
0.0384521
0.018351
0.00317211
0.00690871
0.00886939
0.0104325
0.0117679
0.0128473
0.0135986
0.01393
0.0138312
0.0131942
0.0119492
0.0100511
0.00745332
0.00297122
0.00223979
0.00447566
0.00519938
0.00599555
0.00688324
0.0078031
0.00869118
0.00950428
0.0102174
0.0108202
0.0113136
0.0117057
0.0120079
0.0122344
0.0123982
0.0125129
0.0125912
0.012644
0.0126778
0.0126977
0.0126834
0.0992113
0.0971885
0.0946395
0.091614
0.0882157
0.084545
0.080667
0.0766065
0.0723499
0.0678439
0.0629769
0.057516
0.0508901
0.0412963
0.0199139
0.00345032
0.00746659
0.00961042
0.0113406
0.0128226
0.0140202
0.0148632
0.0152645
0.0152088
0.0145792
0.0132692
0.0111535
0.00803701
0.00313754
0.00234171
0.00458022
0.0053156
0.00615088
0.00709587
0.00807358
0.00901052
0.00986144
0.0106026
0.0112276
0.0117392
0.0121472
0.0124648
0.0127058
0.0128833
0.0130111
0.0131006
0.0131618
0.0131987
0.0132141
0.0131914
0.0992358
0.0973443
0.095025
0.0922964
0.0892195
0.0858628
0.0822765
0.0784832
0.0744734
0.0701986
0.0655458
0.0602634
0.0537199
0.0439369
0.0213961
0.00371282
0.00802285
0.0103997
0.0123448
0.0140054
0.0153357
0.0162766
0.0167594
0.0167615
0.0161666
0.0148287
0.0125233
0.0088505
0.00337519
0.00242553
0.00460625
0.00538501
0.00628765
0.00730822
0.00835018
0.00933364
0.0102144
0.0109743
0.0116109
0.012131
0.0125475
0.0128745
0.0131257
0.0133152
0.0134552
0.013556
0.0136256
0.013666
0.0136794
0.013654
0.0992598
0.0974751
0.0953343
0.0928398
0.0900264
0.0869393
0.0836157
0.0800743
0.076307
0.0722684
0.0678443
0.062767
0.056349
0.0464407
0.0228319
0.00395964
0.00860597
0.011294
0.0135144
0.015377
0.0168369
0.0178605
0.0184194
0.0184792
0.0179436
0.0166309
0.014214
0.0100333
0.00378376
0.00242505
0.0045809
0.00541809
0.00642954
0.00755071
0.00866255
0.00968497
0.010582
0.0113453
0.0119793
0.0124967
0.0129128
0.0132427
0.0135003
0.0136989
0.0138494
0.0139604
0.014038
0.0140823
0.0140957
0.0140701
0.0992827
0.0975872
0.0955888
0.0932823
0.0906862
0.08783
0.0847404
0.0814318
0.0778972
0.074094
0.0699088
0.0650647
0.0588295
0.0488868
0.0242767
0.0042031
0.0092672
0.0123901
0.0149486
0.0170101
0.0185658
0.019634
0.0202276
0.0203318
0.0198681
0.0186394
0.0162386
0.011729
0.00452127
0.00240106
0.00444744
0.00543558
0.00662212
0.00787172
0.00904915
0.0100911
0.0109823
0.0117287
0.012344
0.0128456
0.0132511
0.0135762
0.0138346
0.0140382
0.0141963
0.0143157
0.0144001
0.0144484
0.0144632
0.0144385
0.0993041
0.097684
0.0958014
0.0936478
0.091232
0.088573
0.0856896
0.0825932
0.0792777
0.0757044
0.0717654
0.0671852
0.0612107
0.0513809
0.0257978
0.00443142
0.0101081
0.0138652
0.0167869
0.0189861
0.0205564
0.0215956
0.0221641
0.0222754
0.0218736
0.0207727
0.0185346
0.0140005
0.00567369
0.00238318
0.00417018
0.0054841
0.00695013
0.0083382
0.00955688
0.0105822
0.0114353
0.0121389
0.0127156
0.0131859
0.0135691
0.0138803
0.0141324
0.0143357
0.0144977
0.0146226
0.0147125
0.0147646
0.0147814
0.014758
0.0993238
0.0977675
0.09598
0.0939517
0.0916859
0.0891944
0.0864912
0.0835852
0.080472
0.0771187
0.0734287
0.0691441
0.0635327
0.0540512
0.0275043
0.00469653
0.0113718
0.0160122
0.0192091
0.021382
0.0228244
0.0237257
0.0241903
0.0242541
0.0238848
0.0229245
0.0209661
0.0167857
0.00722536
0.00219689
0.00381103
0.00576664
0.00756579
0.00905217
0.0102384
0.0111887
0.0119596
0.0125886
0.0131029
0.0135248
0.0138723
0.0141594
0.0143972
0.0145939
0.014755
0.0148823
0.0149757
0.0150309
0.01505
0.0150279
0.0993413
0.097839
0.0961298
0.0942042
0.0920627
0.0897127
0.0871648
0.0844268
0.0814965
0.078348
0.0749016
0.0709363
0.0658037
0.0570282
0.0295625
0.00497017
0.0138545
0.0193169
0.0223962
0.0242395
0.0253543
0.0259861
0.0262534
0.0262042
0.0258144
0.0249741
0.0233589
0.0198689
0.00942505
0.00223613
0.00403446
0.00685087
0.00876947
0.0101362
0.0111491
0.011936
0.0125695
0.0130874
0.0135137
0.0138683
0.0141659
0.0144176
0.0146321
0.0148152
0.0149699
0.0150957
0.0151903
0.0152475
0.0152686
0.0152479
0.0993564
0.0978992
0.096254
0.0944122
0.0923726
0.0901406
0.0877245
0.0851316
0.0823621
0.0793977
0.076178
0.0725339
0.0679862
0.0604712
0.0322029
0.0101679
0.0198517
0.0243537
0.0264245
0.0275154
0.0280859
0.0283198
0.0283033
0.02807
0.0275963
0.0268102
0.0255132
0.0229942
0.0144026
0.0054668
0.00753147
0.00961487
0.0108157
0.0116577
0.0123084
0.0128337
0.0132713
0.0136406
0.0139534
0.0142216
0.0144545
0.0146591
0.0148406
0.0150023
0.0151445
0.0152644
0.0153573
0.0154149
0.0154375
0.0154179
0.0993691
0.0979486
0.0963547
0.09458
0.0926229
0.0904872
0.0881803
0.0857094
0.0830767
0.0802703
0.077246
0.0738809
0.0698518
0.0638621
0.0474135
0.0329214
0.03081
0.0308597
0.03103
0.0310362
0.0309093
0.0306555
0.0302942
0.0298202
0.0292041
0.028388
0.0272554
0.0254823
0.0217599
0.0167136
0.0144426
0.0136264
0.0134486
0.0135076
0.0136702
0.0138615
0.0140579
0.0142477
0.0144237
0.0145881
0.0147421
0.0148877
0.0150263
0.0151583
0.0152815
0.0153904
0.0154782
0.0155343
0.0155574
0.0155387
0.099379
0.0979873
0.0964334
0.0947109
0.0928184
0.0907591
0.0885399
0.0861681
0.0836474
0.0809697
0.0781016
0.0749496
0.0712705
0.0663486
0.0567932
0.0457544
0.0400917
0.0372282
0.0356321
0.0345455
0.0336851
0.03292
0.0321873
0.0314433
0.0306438
0.0297325
0.0286235
0.0271387
0.0247862
0.0214525
0.0187851
0.0170422
0.0160155
0.0154357
0.0151242
0.0149689
0.0149062
0.0148992
0.0149217
0.0149684
0.0150312
0.015107
0.0151927
0.0152868
0.0153838
0.0154762
0.015555
0.0156071
0.0156293
0.015611
0.0993863
0.0980156
0.096491
0.0948071
0.0929626
0.0909611
0.0888092
0.0865144
0.0840811
0.0815036
0.0787541
0.0757576
0.0723209
0.0680179
0.0613376
0.0530207
0.0466972
0.0425398
0.0397804
0.0378141
0.036303
0.0350541
0.0339562
0.0329363
0.0319352
0.0308941
0.0297382
0.0283487
0.0264864
0.0240197
0.021594
0.0196442
0.0182234
0.0172305
0.0165504
0.0160896
0.0157801
0.0155743
0.01544
0.01536
0.0153222
0.0153195
0.0153427
0.0153911
0.0154547
0.0155248
0.0155896
0.0156347
0.0156544
0.015636
0.0993908
0.0980337
0.0965282
0.0948698
0.093058
0.0910966
0.0889927
0.0867541
0.0843852
0.0818815
0.0792183
0.0763322
0.0730674
0.0691387
0.0638069
0.0572272
0.0512709
0.0466945
0.0432912
0.0407105
0.0386809
0.0370132
0.0355817
0.0342987
0.0330959
0.0319115
0.0306772
0.0293016
0.0276492
0.0256236
0.0234916
0.0215823
0.0200179
0.0187951
0.0178637
0.0171629
0.0166401
0.0162513
0.0159636
0.0157559
0.0156126
0.0155234
0.0154792
0.0154747
0.0154974
0.0155391
0.0155856
0.0156203
0.0156352
0.0156157
0.0993925
0.0980415
0.0965454
0.0949
0.093106
0.0911681
0.089094
0.0868919
0.0845666
0.0821139
0.0795108
0.0767022
0.0735624
0.0698903
0.0652997
0.059806
0.0544249
0.0498474
0.0461497
0.0431837
0.0407741
0.0387681
0.0370493
0.035529
0.0341363
0.032809
0.0314838
0.0300854
0.028526
0.0267369
0.0248343
0.0230296
0.0214413
0.0201071
0.0190184
0.0181445
0.0174509
0.0169042
0.0164761
0.0161458
0.0158974
0.0157192
0.0156018
0.0155372
0.0155151
0.0155224
0.0155459
0.0155665
0.0155738
0.0155518
0.0993915
0.0980394
0.0965427
0.0948982
0.0931075
0.0911769
0.0891153
0.0869318
0.0846314
0.0822102
0.079647
0.0768931
0.073849
0.0703688
0.0662362
0.0614531
0.0566025
0.0521964
0.0484132
0.0452336
0.0425653
0.0403018
0.0383477
0.0366228
0.0350594
0.0335979
0.0321799
0.0307412
0.0292181
0.0275594
0.0258169
0.0241177
0.0225554
0.0211784
0.0199991
0.0190079
0.0181854
0.0175099
0.0169598
0.0165177
0.0161691
0.0159029
0.0157099
0.0155817
0.0155084
0.015477
0.0154732
0.0154761
0.0154731
0.0154458
0.0993879
0.0980272
0.0965201
0.0948641
0.0930625
0.0911236
0.0890581
0.0868765
0.0845844
0.0821786
0.0796392
0.0769247
0.0739564
0.0706256
0.0668083
0.0625129
0.0580944
0.0539128
0.0501596
0.0468845
0.0440549
0.0416064
0.0394684
0.0375741
0.0358632
0.0342808
0.032774
0.0312877
0.0297707
0.028184
0.0265478
0.0249361
0.0234161
0.0220327
0.0208064
0.01974
0.0188253
0.0180495
0.0173982
0.0168583
0.0164183
0.0160684
0.0158007
0.0156075
0.0154796
0.015405
0.0153688
0.01535
0.0153341
0.0153009
0.0993817
0.0980049
0.0964772
0.0947969
0.0929696
0.0910064
0.0889209
0.0867254
0.0844269
0.082023
0.0794968
0.0768117
0.0739033
0.0706923
0.0671076
0.0631632
0.0590862
0.0551295
0.0514646
0.0481704
0.0452526
0.0426799
0.0404051
0.0383762
0.0365423
0.034855
0.0332673
0.0317316
0.0302051
0.0286561
0.0270884
0.0255437
0.0240669
0.0226947
0.0214486
0.0203371
0.0193594
0.0185087
0.0177769
0.017155
0.0166346
0.0162082
0.0158695
0.015612
0.0154284
0.0153077
0.0152357
0.015192
0.0151601
0.0151197
0.0993731
0.0979726
0.0964132
0.0946949
0.0928264
0.0908228
0.0887013
0.086477
0.0841586
0.0817451
0.0792213
0.0765556
0.0736973
0.0705886
0.0671818
0.0635003
0.059694
0.0559432
0.0523918
0.0491256
0.0461723
0.0435243
0.0411535
0.0390222
0.0370895
0.0353144
0.0336559
0.0320732
0.0305295
0.0289977
0.0274732
0.0259775
0.0245392
0.0231857
0.0219359
0.0208
0.0197815
0.0188775
0.0180842
0.0173961
0.0168078
0.016314
0.0159101
0.0155916
0.0153528
0.0151848
0.0150747
0.0150033
0.0149528
0.0149035
0.0993623
0.0979298
0.0963268
0.0945553
0.0926287
0.0905676
0.0883939
0.0861263
0.0837757
0.0813421
0.0788125
0.0761598
0.0733429
0.0703184
0.0670583
0.0635785
0.0599896
0.056421
0.052991
0.0497807
0.0468289
0.0441432
0.0417106
0.0395057
0.0374972
0.0356514
0.0339335
0.0323087
0.0307451
0.0292188
0.027721
0.0262605
0.0248545
0.0235219
0.0222776
0.0211316
0.0200887
0.0191488
0.0183106
0.0175714
0.0169279
0.0163767
0.0159153
0.0155409
0.0152496
0.0150348
0.0148856
0.0147845
0.0147132
0.0146535
0.0993492
0.097876
0.0962157
0.0943738
0.0923702
0.0902328
0.08799
0.0856646
0.0832698
0.0808072
0.0782651
0.0756199
0.0728377
0.069885
0.0667434
0.06343
0.0600168
0.0566087
0.0532987
0.0501601
0.0472349
0.0445402
0.0420738
0.0398204
0.0377571
0.0358572
0.0340918
0.0324311
0.0308482
0.0293215
0.0278402
0.0264057
0.0250265
0.0237146
0.0224813
0.0213346
0.0202796
0.0193177
0.0184487
0.0176717
0.0169851
0.0163875
0.0158774
0.0154535
0.0151141
0.0148547
0.0146666
0.014535
0.0144415
0.01437
0.0993341
0.0978102
0.0960765
0.0941435
0.0920409
0.0898064
0.0874763
0.0850784
0.0826283
0.0801286
0.0775685
0.0749266
0.072174
0.0692835
0.0662421
0.0630638
0.0598045
0.0565368
0.0533402
0.0502814
0.0473999
0.0447177
0.0422401
0.0399596
0.0378606
0.0359223
0.0341213
0.032433
0.030834
0.029305
0.0278347
0.0264194
0.0250625
0.0237707
0.0225514
0.0214106
0.0203528
0.0193797
0.0184918
0.0176893
0.0169713
0.0163376
0.015788
0.0153223
0.0149405
0.0146401
0.014415
0.0142532
0.0141368
0.0140524
0.099317
0.0977309
0.0959037
0.0938544
0.0916264
0.0892709
0.0868339
0.0843486
0.0818327
0.0792889
0.0767066
0.0740651
0.0713386
0.0685035
0.0655493
0.0624863
0.0593564
0.0562171
0.0531332
0.0501573
0.0473301
0.0446761
0.0422053
0.039916
0.037798
0.035836
0.0340115
0.0323039
0.0306935
0.0291634
0.0277017
0.0263027
0.0249657
0.0236936
0.0224906
0.0213609
0.0203073
0.0193318
0.0184349
0.017617
0.0168782
0.0162186
0.0156387
0.0151394
0.0147218
0.0143855
0.0141265
0.0139363
0.0137973
0.0136994
0.0992982
0.0976356
0.0956891
0.0934913
0.0911057
0.0886014
0.0860361
0.0834484
0.080857
0.0782638
0.0756566
0.0730145
0.0703125
0.0675287
0.0646529
0.0616922
0.0586779
0.0556554
0.0526764
0.0497869
0.0470233
0.0444108
0.0419621
0.0396796
0.0375578
0.035586
0.0337496
0.0320319
0.0304164
0.028888
0.0274356
0.0260521
0.0247343
0.0234824
0.022298
0.0211833
0.02014
0.0191694
0.0182719
0.017448
0.0166977
0.0160218
0.0154209
0.0148964
0.0144505
0.0140842
0.0137958
0.0135798
0.0134197
0.0133082
0.0992778
0.0975202
0.0954196
0.0930308
0.0904473
0.0877619
0.0850454
0.0823407
0.0796659
0.0770199
0.0743876
0.0717459
0.0690692
0.0663355
0.0635335
0.0606671
0.0577597
0.0548464
0.0519693
0.0491678
0.0464746
0.0439139
0.0415
0.0392381
0.0371263
0.0351576
0.0333209
0.0316026
0.0299891
0.0284675
0.0270271
0.0256605
0.0243631
0.0231329
0.0219697
0.020874
0.0198463
0.0188871
0.0179965
0.0171747
0.0164218
0.0157385
0.0151255
0.0145843
0.014118
0.0137284
0.0134159
0.0131781
0.0129994
0.012875
0.099256
0.097378
0.0950739
0.0924363
0.0896039
0.0867001
0.0838088
0.0809744
0.0782111
0.0755122
0.0728576
0.0702205
0.0675729
0.0648911
0.0621624
0.0593872
0.056582
0.0537741
0.0509977
0.0482867
0.0456699
0.0431704
0.0408028
0.0385742
0.0364853
0.0345321
0.0327067
0.0309981
0.0293949
0.0278864
0.0264628
0.0251166
0.0238424
0.0226369
0.0214983
0.0204259
0.019419
0.0184774
0.0176007
0.0167887
0.0160413
0.0153591
0.0147426
0.0141933
0.0137145
0.0133091
0.0129785
0.0127235
0.0125301
0.0123944
0.0992333
0.0971974
0.094616
0.0916489
0.0885034
0.0853394
0.0822508
0.0792779
0.076426
0.0736792
0.0710096
0.0683851
0.065774
0.0631503
0.0604985
0.0578154
0.0551119
0.0524093
0.0497353
0.0471187
0.0445853
0.0421561
0.039846
0.0376631
0.03561
0.033685
0.0318828
0.0301949
0.0286118
0.0271245
0.0257243
0.0244039
0.0231576
0.0219812
0.020872
0.0198279
0.0188476
0.01793
0.0170742
0.0162794
0.0155454
0.0148725
0.0142609
0.013712
0.013229
0.0128152
0.0124734
0.0122068
0.0120037
0.0118588
0.0992102
0.0969567
0.0939815
0.0905701
0.0870318
0.0835646
0.0802619
0.0771494
0.0742167
0.071434
0.0687633
0.0661652
0.0636033
0.0610483
0.0584814
0.0558961
0.0532987
0.0507054
0.0481388
0.0456233
0.0431817
0.0408335
0.0385929
0.0364688
0.0344651
0.0325819
0.0308161
0.0291613
0.0276096
0.0261535
0.0247855
0.0234986
0.0222871
0.0211463
0.0200727
0.0190635
0.0181164
0.0172298
0.0164022
0.0156325
0.0149199
0.0142646
0.0136666
0.0131264
0.0126476
0.0122336
0.0118877
0.0116156
0.011409
0.0112587
0.0991886
0.0966114
0.0930475
0.0890277
0.0850042
0.0811974
0.0776773
0.0744387
0.0714459
0.0686503
0.0660014
0.0634511
0.0609576
0.0584877
0.0560197
0.0535438
0.0510627
0.0485881
0.0461384
0.0437346
0.0413968
0.0391427
0.0369861
0.0349362
0.0329977
0.031172
0.0294579
0.027851
0.0263446
0.0249325
0.0236082
0.0223654
0.0211982
0.020102
0.0190726
0.0181066
0.0172011
0.0163539
0.0155631
0.014827
0.0141446
0.0135156
0.0129403
0.0124179
0.0119522
0.0115463
0.0112042
0.0109335
0.0107298
0.0105807
0.0991719
0.096058
0.0915601
0.0867049
0.0821064
0.0779498
0.074237
0.0709104
0.0678985
0.0651293
0.0625382
0.0600682
0.057672
0.0553128
0.0529663
0.0506198
0.0482727
0.0459337
0.0436177
0.0413425
0.0391261
0.0369848
0.0349316
0.0329758
0.0311227
0.0293746
0.0277318
0.0261918
0.0247487
0.0233976
0.0221327
0.0209484
0.0198392
0.0188001
0.0178268
0.0169154
0.0160626
0.0152656
0.014522
0.01383
0.013188
0.0125955
0.012053
0.0115585
0.0111157
0.0107274
0.010398
0.010136
0.00994223
0.00980277
0.0991693
0.09501
0.0889441
0.0829786
0.0777696
0.0733177
0.0694923
0.0661588
0.0632013
0.0605238
0.0580477
0.0557085
0.0534544
0.0512462
0.0490573
0.0468734
0.0446916
0.0425177
0.0403641
0.0382463
0.0361801
0.0341806
0.0322601
0.0304279
0.0286896
0.0270476
0.025504
0.0240576
0.0227035
0.0214376
0.020255
0.0191506
0.0181192
0.0171559
0.0162561
0.0154158
0.0146313
0.0138994
0.0132175
0.0125832
0.0119951
0.0114516
0.0109548
0.0105003
0.0100926
0.00973278
0.00942699
0.00918202
0.00900603
0.00888919
0.0991973
0.0924841
0.083746
0.0764963
0.070834
0.0662917
0.0625408
0.0593582
0.0565872
0.0541133
0.0518489
0.0497254
0.0476897
0.0457019
0.0437353
0.0417747
0.0398161
0.0378635
0.0359271
0.0340205
0.0321579
0.0303529
0.0286171
0.0269596
0.0253859
0.023898
0.0224994
0.0211904
0.0199672
0.018826
0.0177627
0.016773
0.0158519
0.0149948
0.0141971
0.0134545
0.0127632
0.0121199
0.0115216
0.010966
0.0104518
0.00997559
0.0095432
0.00914582
0.00879007
0.00847311
0.00820635
0.00798897
0.00783898
0.00776565
0.0992672
0.0841765
0.0716248
0.0636608
0.0582862
0.0542168
0.0509588
0.0482576
0.045941
0.0438962
0.0420392
0.0403065
0.0386493
0.0370323
0.0354317
0.0338337
0.0322342
0.0306363
0.0290484
0.0274821
0.0259493
0.0244621
0.0230305
0.0216634
0.0203654
0.0191355
0.0179785
0.0168988
0.015893
0.0149577
0.01409
0.0132861
0.0125416
0.0118524
0.0112139
0.0106223
0.0100737
0.00956505
0.00909363
0.00865659
0.00825498
0.00787991
0.00754742
0.00723765
0.00696302
0.00671253
0.00651018
0.00633896
0.00622431
0.00622281
0.0963831
0.0505128
0.0372748
0.0316999
0.0286321
0.0265185
0.0249058
0.0236126
0.0225241
0.021581
0.0207368
0.0199566
0.0192127
0.0184864
0.0177642
0.0170376
0.0163036
0.0155627
0.0148188
0.0140775
0.0133451
0.0126281
0.011932
0.011263
0.0106223
0.0100156
0.00944426
0.00890893
0.00840861
0.0079416
0.00750686
0.00710307
0.00672862
0.00638166
0.00606039
0.00576271
0.00548724
0.00523161
0.00499592
0.00477624
0.00457676
0.00438904
0.00422235
0.00407137
0.0039388
0.00382547
0.00372708
0.00366549
0.00362246
0.00368442
)
;

boundaryField
{
    floor
    {
        type            kqRWallFunction;
        value           nonuniform List<scalar> 
50
(
0.0963833
0.0502706
0.0365184
0.0303069
0.0264954
0.0235277
0.0209776
0.0186643
0.0165013
0.0144428
0.0125005
0.0106036
0.00839974
0.00541815
0.00213921
0.000551015
0.00122456
0.00174298
0.00222072
0.00262048
0.00298904
0.00322882
0.00335807
0.00337877
0.00331534
0.003091
0.0025822
0.00196124
0.00109959
0.000672062
0.00113634
0.00148733
0.00184681
0.00214561
0.00240927
0.00263412
0.00284444
0.00300512
0.00313206
0.00322719
0.00329799
0.00334846
0.00338455
0.00341021
0.00343013
0.00343838
0.003438
0.00340894
0.00333361
0.00324857
)
;
    }
    ceiling
    {
        type            kqRWallFunction;
        value           nonuniform List<scalar> 
50
(
0.0963831
0.0505128
0.0372748
0.0316999
0.0286321
0.0265185
0.0249058
0.0236126
0.0225241
0.021581
0.0207368
0.0199566
0.0192127
0.0184864
0.0177642
0.0170376
0.0163036
0.0155627
0.0148188
0.0140775
0.0133451
0.0126281
0.011932
0.011263
0.0106223
0.0100156
0.00944426
0.00890893
0.00840861
0.0079416
0.00750686
0.00710307
0.00672862
0.00638166
0.00606039
0.00576271
0.00548724
0.00523161
0.00499592
0.00477624
0.00457676
0.00438904
0.00422235
0.00407137
0.0039388
0.00382547
0.00372708
0.00366549
0.00362246
0.00368442
)
;
    }
    inlet
    {
        type            fixedValue;
        value           uniform 0.1;
    }
    outlet
    {
        type            zeroGradient;
    }
    fixedWalls
    {
        type            empty;
    }
    baffleFacesThermoBaffle1D_master
    {
        type            kqRWallFunction;
        value           nonuniform List<scalar> 
16
(
0.000551015
0.000881916
0.0013851
0.00183072
0.00221793
0.00256107
0.00287645
0.00317211
0.00345032
0.00371282
0.00395964
0.0042031
0.00443142
0.00469653
0.00497017
0.0101679
)
;
    }
    baffleFacesThermoBaffle1D_slave
    {
        type            kqRWallFunction;
        value           nonuniform List<scalar> 
16
(
0.00213921
0.00534265
0.00812506
0.0105836
0.0128639
0.0148775
0.0166842
0.018351
0.0199139
0.0213961
0.0228319
0.0242767
0.0257978
0.0275043
0.0295625
0.0322029
)
;
    }
    baffleFacesThermoBaffle3D_master
    {
        type            kqRWallFunction;
        value           nonuniform List<scalar> 
16
(
0.000672062
0.000809825
0.00111933
0.00141526
0.00167524
0.00190066
0.00208287
0.00223979
0.00234171
0.00242553
0.00242505
0.00240106
0.00238318
0.00219689
0.00223613
0.0054668
)
;
    }
    baffleFacesThermoBaffle3D_slave
    {
        type            kqRWallFunction;
        value           nonuniform List<scalar> 
16
(
0.00109959
0.00141821
0.001862
0.00220108
0.00248079
0.00266235
0.00282002
0.00297122
0.00313754
0.00337519
0.00378376
0.00452127
0.00567369
0.00722536
0.00942505
0.0144026
)
;
    }
}


// ************************************************************************* //
