/*--------------------------------*- C++ -*----------------------------------*\
| =========                 |                                                 |
| \\      /  F ield         | OpenFOAM: The Open Source CFD Toolbox           |
|  \\    /   O peration     | Version:  v1906                                 |
|   \\  /    A nd           | Web:      www.OpenFOAM.com                      |
|    \\/     M anipulation  |                                                 |
\*---------------------------------------------------------------------------*/
FoamFile
{
    version     2.0;
    format      ascii;
    class       volScalarField;
    location    "2500";
    object      nut;
}
// * * * * * * * * * * * * * * * * * * * * * * * * * * * * * * * * * * * * * //

dimensions      [0 2 -1 0 0 0 0];


internalField   nonuniform List<scalar> 
2000
(
0.000435738
0.000314689
0.000268213
0.00024434
0.00022846
0.000215285
0.000203283
0.000191747
0.000180295
0.000168675
0.000156924
0.000144528
0.000128634
0.000103312
7.98969e-05
4.05504e-05
4.91161e-05
5.85976e-05
6.61422e-05
7.18491e-05
7.67354e-05
7.97535e-05
8.13339e-05
8.15841e-05
8.08145e-05
7.80325e-05
7.13154e-05
6.21674e-05
5.73002e-05
4.47324e-05
4.72667e-05
5.4094e-05
6.02672e-05
6.49606e-05
6.88385e-05
7.19791e-05
7.47934e-05
7.68771e-05
7.84826e-05
7.96644e-05
8.05324e-05
8.11451e-05
8.15801e-05
8.18871e-05
8.21234e-05
8.22181e-05
8.22098e-05
8.18575e-05
8.09386e-05
7.98994e-05
0.00855129
0.00366969
0.00289355
0.0026005
0.00240416
0.00223879
0.00208996
0.00195282
0.00182381
0.00170043
0.00157689
0.00144152
0.00126447
0.000887309
0.000164143
6.66911e-05
0.000296787
0.000415665
0.000533145
0.000631039
0.000709798
0.000768069
0.000801419
0.000803852
0.000768174
0.000688313
0.00055452
0.00036397
8.45462e-05
6.38943e-05
0.00018323
0.000248149
0.000331161
0.000414445
0.000489549
0.000552493
0.000607119
0.000650757
0.000686019
0.000715762
0.000739963
0.000760302
0.000777536
0.000792841
0.000807373
0.000821205
0.000833348
0.000841529
0.000838678
0.000830183
0.0310606
0.0116336
0.00797561
0.00660225
0.00583419
0.00528585
0.00484613
0.00446492
0.00411551
0.00377814
0.00342793
0.00302165
0.00246259
0.00151645
0.000202422
8.35784e-05
0.000577679
0.000841457
0.00105378
0.00122713
0.00136504
0.00145882
0.00149552
0.00148066
0.00139481
0.00123216
0.000982965
0.000652566
9.68886e-05
7.51115e-05
0.000392403
0.000539661
0.000695053
0.000846066
0.000983253
0.00110403
0.00121241
0.00130452
0.00138185
0.0014474
0.00150213
0.00154835
0.00158778
0.00162293
0.00165418
0.00168206
0.0017051
0.0017187
0.00171644
0.00170119
0.0509992
0.0225967
0.0147924
0.0116332
0.00991665
0.00876222
0.00789047
0.0071633
0.00651169
0.00588696
0.00523717
0.00448418
0.00348622
0.00200267
0.000231026
9.60867e-05
0.000773916
0.0011881
0.00147876
0.00170523
0.00187463
0.00198124
0.00200555
0.00196483
0.00183026
0.00159911
0.00126447
0.000813526
0.000105354
8.44441e-05
0.000563168
0.000798472
0.0010155
0.00121955
0.00140637
0.00157469
0.00172642
0.00185881
0.0019727
0.00207047
0.00215372
0.00222479
0.00228688
0.00234094
0.00238843
0.00242917
0.00246137
0.00248042
0.00248136
0.00246645
0.0630374
0.0336471
0.0224483
0.0173101
0.0144304
0.0125301
0.0111098
0.00995686
0.00893906
0.00797118
0.00697024
0.0058265
0.00437191
0.00239397
0.000254701
0.000105761
0.000911944
0.00145779
0.00181739
0.00208131
0.00227202
0.00238492
0.00239833
0.00233125
0.00215018
0.00185293
0.00143469
0.000888605
0.000111851
9.1866e-05
0.000696289
0.00101201
0.00128216
0.0015279
0.00175321
0.0019586
0.00214462
0.00230975
0.00245432
0.00258011
0.00268893
0.00278293
0.00286628
0.00293848
0.0030014
0.00305464
0.00309619
0.00312178
0.00312808
0.00311732
0.0701514
0.0431575
0.0300572
0.0232164
0.0191636
0.0164481
0.0144295
0.0127898
0.0113594
0.0100072
0.00861935
0.00706056
0.00515633
0.00272169
0.000273911
0.000113648
0.00101371
0.00166697
0.00208353
0.0023795
0.00258713
0.00270505
0.00270986
0.00261963
0.00239686
0.0020395
0.00154133
0.000919464
0.000115873
9.78461e-05
0.000797121
0.00117776
0.00149486
0.00177405
0.00202922
0.0022633
0.00247639
0.00266769
0.00283785
0.0029882
0.00312039
0.00323629
0.00333921
0.00342878
0.00350671
0.00357246
0.00362405
0.00365763
0.0036709
0.00366586
0.0746065
0.0507946
0.0370416
0.028985
0.0239004
0.0203918
0.0177548
0.0156117
0.0137366
0.0119741
0.010178
0.00819679
0.00585411
0.0029983
0.000290066
0.000120443
0.00109495
0.00183017
0.0022959
0.00262099
0.00284651
0.00297328
0.00297543
0.00286843
0.00261105
0.00219878
0.0016251
0.000923896
0.000119255
0.000102424
0.000862943
0.00129744
0.0016549
0.00196142
0.00224019
0.00249723
0.00273312
0.00294741
0.00314012
0.00331213
0.00346492
0.00360024
0.00372086
0.0038269
0.00391943
0.0039978
0.00405998
0.00410262
0.00412331
0.00412261
0.0775754
0.0567712
0.0431467
0.0343595
0.0284593
0.0242405
0.0210102
0.0183619
0.0160382
0.0138529
0.0116411
0.00923812
0.00647286
0.00323606
0.00030421
0.000126482
0.00116028
0.00195859
0.00246692
0.00282157
0.00306951
0.00321218
0.00322082
0.00310462
0.00282209
0.00236136
0.00171468
0.000920885
0.000122411
0.000106211
0.000893909
0.00137579
0.00176445
0.00209408
0.00239215
0.00266831
0.00292407
0.00315853
0.0033713
0.00356293
0.0037347
0.00388823
0.00402566
0.00414748
0.0042544
0.00434556
0.00441894
0.00447151
0.00450104
0.00450729
0.0796561
0.0614213
0.0483308
0.0391991
0.0327103
0.0278961
0.0241263
0.0209961
0.0182319
0.0156278
0.0130046
0.0101911
0.00702662
0.00344241
0.0003169
0.000131912
0.00121066
0.0020595
0.00260553
0.00299266
0.00326985
0.00343695
0.00346271
0.00334668
0.00304909
0.00254766
0.00183148
0.000936984
0.000125791
0.0001086
0.000891529
0.00141106
0.00182747
0.00217456
0.00248991
0.0027841
0.00305832
0.00331135
0.00354249
0.00375205
0.00394121
0.00411153
0.0042647
0.00440144
0.00452236
0.00462622
0.00471102
0.00477378
0.0048121
0.00482485
0.0811703
0.0650493
0.0526598
0.0434525
0.0365755
0.0312887
0.0270495
0.0234768
0.0202951
0.0172886
0.0142695
0.0110647
0.00752694
0.00362546
0.000328481
0.000136838
0.00124808
0.00213709
0.00271807
0.00314292
0.00345746
0.00365744
0.00371101
0.00360634
0.00330202
0.00276914
0.00198769
0.00098404
0.000130467
0.000110532
0.000862272
0.00140668
0.00184239
0.00220725
0.00254052
0.0028532
0.00314567
0.00341632
0.00366434
0.00389012
0.00409498
0.0042805
0.00444819
0.00459891
0.00473323
0.0048495
0.00494564
0.00501853
0.00506537
0.00508392
0.082303
0.0678962
0.0562403
0.0471261
0.0400204
0.0343761
0.0297435
0.0257781
0.0222136
0.0188319
0.0154417
0.0118714
0.00798727
0.00379397
0.000339324
0.000141313
0.00127544
0.00219361
0.00280988
0.00327997
0.0036403
0.00388021
0.00397162
0.00388661
0.00358659
0.00303148
0.00218929
0.00106837
0.000138126
0.000110522
0.000806561
0.00136265
0.00181539
0.00219907
0.00255315
0.00288606
0.00319696
0.00348421
0.00374736
0.00398733
0.00420586
0.00440463
0.00458509
0.00474891
0.0048955
0.00502352
0.0051306
0.00521334
0.00526832
0.0052922
0.0831672
0.0701433
0.0591846
0.050258
0.0430414
0.0371392
0.0321882
0.0278855
0.0239809
0.0202603
0.0165325
0.012628
0.00842452
0.00395824
0.000349896
0.000145593
0.00129851
0.00223028
0.00288764
0.00341251
0.0038261
0.00411252
0.00424402
0.00418767
0.00390218
0.00333675
0.00244093
0.0011973
0.000151015
0.000109982
0.000725667
0.00127965
0.0017552
0.00216211
0.00254145
0.0028962
0.00322494
0.0035268
0.00380247
0.00405379
0.00428325
0.00449276
0.0046839
0.00485887
0.00501639
0.00515512
0.00527243
0.00536451
0.00542724
0.00545611
0.0838356
0.0719249
0.0615948
0.0529002
0.0456545
0.0395762
0.0343765
0.0297937
0.0255976
0.0215821
0.017558
0.013357
0.00886231
0.00413369
0.000360691
0.000149495
0.00131123
0.00225226
0.00296353
0.00355253
0.00402315
0.00435753
0.00452979
0.00450711
0.00424551
0.00368355
0.00274819
0.00138624
0.000169143
0.000109554
0.000601472
0.00116683
0.00167698
0.00211644
0.00252513
0.00290096
0.00324449
0.00355695
0.0038409
0.00409939
0.00433612
0.0045526
0.00475237
0.00493571
0.00510221
0.00525019
0.00537666
0.00547734
0.00554737
0.00558094
0.0843566
0.0733399
0.0635582
0.0551069
0.0478858
0.0416963
0.0363104
0.0315043
0.0270693
0.0228095
0.0185394
0.0140892
0.00933614
0.00434322
0.000372429
0.0001539
0.00129464
0.00227556
0.00306006
0.00371768
0.00424227
0.00461982
0.00482937
0.00484113
0.00461139
0.00406857
0.00311544
0.00165492
0.00019088
0.00010523
0.000483517
0.00107194
0.00161177
0.00209554
0.00253102
0.00292117
0.00327206
0.00358801
0.00387381
0.00413363
0.00437253
0.00459262
0.00479665
0.00498545
0.00515848
0.0053138
0.00544804
0.00555636
0.00563309
0.00567111
0.0847634
0.0744608
0.0651455
0.0569291
0.0497653
0.0435146
0.0379973
0.0330231
0.028404
0.0239564
0.0195002
0.0148625
0.00990752
0.00465422
0.000386113
0.000158339
0.00126053
0.00234202
0.00321369
0.00393233
0.00449793
0.00490599
0.0051437
0.00518678
0.00499194
0.00448685
0.00354453
0.00200319
0.000218005
0.000106132
0.000427069
0.00106165
0.00163779
0.0021472
0.00259097
0.00297881
0.00332397
0.00363265
0.00391138
0.00416575
0.00440053
0.00461876
0.00482279
0.00501346
0.0051901
0.00535044
0.00549069
0.00560544
0.00568814
0.00573032
0.0850794
0.0753411
0.0664129
0.0584107
0.0513215
0.0450477
0.0394465
0.0343562
0.0296087
0.0250345
0.0204627
0.0157233
0.010661
0.00520857
0.000402986
0.000226453
0.00135329
0.00254638
0.00348219
0.0042282
0.00480755
0.00522458
0.00547513
0.00554077
0.00537943
0.00493205
0.00404894
0.00244686
0.000269498
0.000165999
0.000540836
0.00123924
0.00183059
0.00231726
0.00273218
0.00309322
0.00341357
0.00370121
0.00396227
0.00420255
0.00442642
0.0046369
0.00483603
0.0050245
0.00520137
0.00536404
0.00550824
0.00562795
0.00571574
0.00576173
0.0853206
0.0760193
0.0674033
0.0595874
0.0525793
0.0463105
0.0406662
0.0355082
0.0306871
0.026049
0.0214387
0.0167061
0.0117317
0.00650836
0.00152143
0.00130848
0.00207924
0.00305893
0.00393232
0.0046384
0.00518884
0.00558464
0.00582715
0.0059009
0.0057715
0.00538816
0.00464165
0.00336894
0.00152802
0.00133634
0.00151393
0.00186852
0.00226135
0.00262963
0.00296733
0.00327148
0.00354732
0.00379962
0.00403184
0.00424927
0.00445505
0.00465172
0.00484072
0.00502263
0.00519605
0.00535805
0.00550389
0.00562685
0.00571866
0.00576804
0.0854983
0.0765229
0.068148
0.0604862
0.053558
0.0473145
0.0416617
0.0364799
0.0316366
0.0269945
0.0224185
0.0177884
0.0130345
0.008235
0.00375201
0.00296049
0.00331945
0.00394598
0.00460593
0.00518477
0.0056503
0.00599146
0.00620187
0.00626705
0.00615912
0.0058325
0.00523363
0.00425814
0.00297611
0.0025217
0.00248901
0.00261395
0.00281641
0.00304627
0.00328021
0.00350699
0.00372298
0.00392823
0.00412162
0.00430838
0.00448938
0.0046665
0.00484014
0.00501112
0.00517726
0.00533541
0.00548042
0.00560472
0.00569931
0.00575158
0.0856199
0.0768701
0.0686684
0.0611257
0.0542704
0.0480662
0.0424336
0.0372668
0.0324477
0.0278548
0.0233737
0.0189138
0.014446
0.0100877
0.00623488
0.00495551
0.00479815
0.00506332
0.00545497
0.00585012
0.00618903
0.00644394
0.00659901
0.00663764
0.00653594
0.00625967
0.00577272
0.00503147
0.00412916
0.00358945
0.00339013
0.00335199
0.00340427
0.00350771
0.00363814
0.00378165
0.00393041
0.00408057
0.00422989
0.00437957
0.00453021
0.00468302
0.0048363
0.00499242
0.00514748
0.00529858
0.00543967
0.00556334
0.00565941
0.00571402
0.0856897
0.0770717
0.0689769
0.0615163
0.0547226
0.0485669
0.042978
0.0378599
0.0331051
0.0286057
0.0242653
0.0200171
0.0158584
0.0119175
0.00856882
0.00697908
0.00638413
0.00628653
0.00640812
0.00659772
0.0067858
0.00693243
0.00701351
0.00700927
0.00689789
0.00665311
0.00624882
0.0056743
0.00500259
0.00447354
0.00418306
0.00403131
0.00397047
0.00396997
0.00400883
0.00407353
0.00415532
0.00424874
0.00435051
0.00445974
0.00457618
0.00469995
0.00483044
0.00496817
0.00510841
0.00524926
0.00538423
0.00550515
0.00560118
0.00565742
0.0857095
0.0771319
0.0690779
0.0616603
0.0549139
0.048812
0.0432862
0.0382453
0.0335886
0.029218
0.0250506
0.0210357
0.0171833
0.0136137
0.0106325
0.00889151
0.00792628
0.0075358
0.00739806
0.00738449
0.00741365
0.0074406
0.0074355
0.00737583
0.00724059
0.00700834
0.00666058
0.00619448
0.00565951
0.00518593
0.00485064
0.00462622
0.00448457
0.00440343
0.0043665
0.00436222
0.00438242
0.00442157
0.00447603
0.00454397
0.0046245
0.00471725
0.00482173
0.00493732
0.00506124
0.00518905
0.00531542
0.00543161
0.00552608
0.00558301
0.0856786
0.0770488
0.0689681
0.0615532
0.0548378
0.0487922
0.0433454
0.0384062
0.0338756
0.0296612
0.0256882
0.0219147
0.0183534
0.015104
0.0123918
0.0105737
0.00938184
0.00873882
0.0083745
0.00816805
0.00804281
0.00794804
0.00785134
0.00772834
0.00755844
0.00732295
0.00700744
0.00661049
0.00616324
0.00573864
0.00539235
0.00512681
0.00493025
0.00478935
0.00469259
0.00463102
0.00459774
0.00458789
0.00459804
0.00462612
0.00467102
0.00473216
0.00480908
0.00490091
0.00500535
0.00511831
0.0052343
0.005344
0.00543551
0.00549144
0.0855942
0.0768145
0.0686363
0.0611819
0.0544805
0.0484934
0.0431411
0.0383244
0.033943
0.0299059
0.0261412
0.0226098
0.01932
0.016346
0.0138422
0.0120041
0.0106776
0.00984027
0.00928698
0.00891209
0.00864365
0.00843273
0.00824505
0.00805563
0.00784423
0.00759383
0.00729192
0.00693615
0.00654456
0.00615876
0.00581683
0.00553093
0.00529955
0.00511641
0.00497442
0.00486725
0.00478962
0.00473754
0.00470815
0.00469957
0.00471074
0.00474111
0.00479033
0.00485769
0.00494124
0.00503744
0.00514064
0.00524201
0.00532946
0.00538446
0.0854507
0.0764147
0.0680641
0.0605271
0.0538231
0.0478969
0.0426524
0.0379788
0.033768
0.0299251
0.026379
0.0230879
0.0200506
0.0173171
0.0149883
0.0131712
0.0117732
0.0107987
0.0100974
0.00958213
0.00918921
0.00887288
0.00859974
0.00834515
0.00808943
0.00781666
0.00751526
0.00718136
0.00682407
0.00646699
0.00613505
0.00584147
0.00558978
0.00537841
0.00520374
0.00506177
0.00494883
0.00486186
0.00479869
0.00475781
0.00473836
0.00473999
0.00476257
0.00480566
0.00486786
0.00494619
0.00503537
0.00512709
0.0052093
0.00526287
0.0852398
0.0758278
0.0672246
0.0595623
0.052842
0.0469821
0.0418617
0.0373511
0.0333299
0.0296968
0.0263755
0.0233213
0.0205226
0.018008
0.0158364
0.0140698
0.0126466
0.0115853
0.0107761
0.0101505
0.00965479
0.00924773
0.00889868
0.00858384
0.00828457
0.00798592
0.00767683
0.007352
0.00701493
0.00667814
0.00635723
0.0060632
0.00580125
0.0055724
0.00537543
0.00520819
0.00506835
0.00495378
0.00486294
0.00479473
0.00474864
0.00472447
0.00472242
0.00474239
0.00478359
0.00484368
0.00491807
0.00499913
0.00507514
0.00512687
0.0849494
0.0750239
0.0660816
0.0582534
0.051509
0.0457268
0.0407504
0.0364245
0.0326124
0.029203
0.0261136
0.0232947
0.0207243
0.0184132
0.0163945
0.0146991
0.0132868
0.012181
0.0113009
0.0105951
0.0100197
0.00953924
0.00912623
0.00875887
0.00841983
0.00809517
0.00777432
0.00745107
0.00712501
0.0068021
0.00649151
0.00620103
0.00593565
0.00569743
0.00548655
0.00530216
0.00514298
0.00500767
0.0048952
0.0048049
0.00473657
0.00469017
0.00466622
0.00466502
0.00468632
0.00472852
0.00478787
0.00485761
0.00492672
0.00497626
0.0845625
0.0739618
0.0645882
0.0565594
0.0497928
0.0441082
0.039302
0.0351861
0.0316038
0.0284328
0.0255848
0.0229987
0.0206505
0.0185353
0.0166676
0.0150611
0.0136905
0.0125741
0.0116562
0.0108987
0.0102669
0.00973129
0.00926818
0.00885814
0.0084855
0.0081375
0.0078041
0.00747852
0.00715832
0.00684523
0.00654387
0.0062593
0.00599514
0.0057536
0.00553551
0.00534081
0.00516891
0.00501909
0.00489074
0.00478352
0.00469737
0.00463279
0.00459024
0.00457041
0.00457355
0.00459883
0.00464344
0.00470164
0.0047634
0.0048105
0.0840553
0.0725862
0.0626855
0.0544329
0.0476609
0.0421063
0.0375042
0.0336277
0.0302977
0.0273802
0.0247795
0.0224325
0.0203015
0.018379
0.016665
0.0151583
0.0138586
0.0127589
0.0118311
0.0110483
0.0103827
0.00981051
0.00931211
0.00887062
0.00847232
0.00810575
0.0077617
0.00743335
0.00711687
0.00681146
0.00651875
0.00624134
0.00598162
0.00574131
0.00552134
0.00532199
0.00514311
0.00498438
0.00484551
0.00472641
0.00462719
0.00454839
0.00449076
0.00445522
0.00444246
0.00445235
0.00448303
0.00452989
0.00458414
0.0046287
0.0833939
0.0708232
0.0603007
0.0518213
0.0450823
0.039706
0.0353515
0.0317483
0.0286949
0.0260463
0.0237016
0.0215943
0.0196849
0.0179526
0.0163952
0.0150039
0.0137865
0.0127305
0.0118205
0.0110357
0.010357
0.00976651
0.00924752
0.00878655
0.00837174
0.00799307
0.00764224
0.00731272
0.00700004
0.00670195
0.00641811
0.00614931
0.00589669
0.00566132
0.00544387
0.00524468
0.00506378
0.00490107
0.00475648
0.00463006
0.00452207
0.00443312
0.00436406
0.004316
0.00428998
0.00428645
0.00430447
0.00434061
0.0043875
0.00442954
0.0825298
0.0685731
0.0573459
0.04867
0.042032
0.0369011
0.0328474
0.0295556
0.0268038
0.0244393
0.0223586
0.0204941
0.0188038
0.0172654
0.0158678
0.0146071
0.0134827
0.01249
0.0116178
0.0108534
0.0101817
0.00958966
0.00906519
0.00859719
0.00817588
0.00779274
0.00744053
0.00711322
0.00680624
0.0065166
0.00624273
0.00598418
0.00574106
0.00551371
0.00530247
0.0051075
0.00492888
0.00476657
0.00462061
0.00449115
0.0043785
0.00428331
0.00420649
0.00414921
0.00411279
0.00409815
0.00410516
0.00413156
0.00417151
0.00421126
0.08139
0.0657014
0.0537193
0.044929
0.038498
0.0336997
0.0300082
0.0270673
0.0246412
0.0225741
0.0207638
0.0191443
0.0176733
0.0163273
0.0150956
0.013972
0.0129559
0.0120422
0.0112257
0.010498
0.00985051
0.0092735
0.00875791
0.00829525
0.00787778
0.00749853
0.00715138
0.00683099
0.00653299
0.00625413
0.00599221
0.00574596
0.00551473
0.00529825
0.00509643
0.00490925
0.00473666
0.00457864
0.00443522
0.0043066
0.00419312
0.00409539
0.00401436
0.00395118
0.00390732
0.00388409
0.00388203
0.00389999
0.0039337
0.00397157
0.0798617
0.0620271
0.0493106
0.0405642
0.0344896
0.0301292
0.0268651
0.0243129
0.0222328
0.0204725
0.0189358
0.0175615
0.0163075
0.0151552
0.0140909
0.0131091
0.0122085
0.0113868
0.0106413
0.00996751
0.00936008
0.00881289
0.00831971
0.00787443
0.00747121
0.0071046
0.00676968
0.00646183
0.00617712
0.00591237
0.00566515
0.00543371
0.00521692
0.00501404
0.00482464
0.00464843
0.00448523
0.00433494
0.0041976
0.00407335
0.00396253
0.00386573
0.00378386
0.003718
0.00366968
0.00364049
0.00363149
0.00364253
0.00367091
0.00370749
0.0777602
0.057311
0.0440166
0.0355748
0.0300495
0.0262418
0.023467
0.0213339
0.019613
0.0181627
0.0168977
0.0157643
0.0147258
0.0137636
0.0128664
0.0120294
0.0112511
0.0105311
0.00986858
0.00926173
0.00870796
0.00820389
0.00774569
0.00732929
0.00695057
0.00660549
0.00629034
0.0060013
0.00573493
0.00548837
0.0052592
0.00504555
0.00484598
0.00465948
0.00448532
0.00432303
0.00417226
0.00403285
0.00390474
0.00378807
0.00368311
0.00359042
0.00351087
0.00344538
0.00339549
0.00336295
0.00334925
0.00335503
0.00337913
0.0034152
0.0747647
0.0512514
0.0377773
0.0300205
0.0252657
0.0221191
0.0198807
0.0181832
0.0168239
0.0156769
0.0146776
0.0137767
0.0129457
0.0121685
0.0114359
0.0107441
0.0100922
0.00948067
0.0089103
0.00838118
0.00789267
0.00744349
0.00703172
0.006655
0.00631067
0.00599593
0.00570823
0.00544462
0.00520214
0.00497836
0.00477113
0.00457859
0.00439927
0.00423198
0.00407586
0.00393026
0.00379475
0.00366905
0.00355306
0.00344685
0.00335067
0.00326499
0.00319071
0.00312842
0.0030797
0.00304631
0.00303013
0.00303247
0.00305317
0.00308981
0.0702784
0.0435194
0.0306429
0.0240528
0.0202802
0.0178719
0.0161894
0.014923
0.0139111
0.013056
0.0123052
0.0116231
0.0109879
0.0103871
0.00981359
0.00926469
0.00874026
0.00824148
0.00776996
0.00732702
0.00691341
0.0065293
0.00617419
0.00584709
0.00554651
0.00527067
0.00501801
0.00478657
0.00457376
0.00437771
0.0041966
0.0040288
0.00387291
0.00372777
0.00359243
0.0034662
0.00334857
0.00323921
0.00313796
0.00304485
0.00296006
0.00288401
0.00281769
0.00276117
0.00271617
0.00268426
0.00266769
0.00266804
0.00268674
0.00272504
0.0631302
0.0339097
0.0228792
0.0179412
0.0152885
0.0136346
0.0124859
0.011624
0.0109294
0.010338
0.00981284
0.00933002
0.00887459
0.00843766
0.00801453
0.00760346
0.00720486
0.00682026
0.0064517
0.00610112
0.00577004
0.0054595
0.00516997
0.0049014
0.00465319
0.0044243
0.00421401
0.00402128
0.00384395
0.00368064
0.00352999
0.00339069
0.00326154
0.00314148
0.00302965
0.00292536
0.00282807
0.00273747
0.00265335
0.00257571
0.0025047
0.0024406
0.00238467
0.00233624
0.00229727
0.00226886
0.00225371
0.00225332
0.00227001
0.00231129
0.0510565
0.0227651
0.0150776
0.0120676
0.0105212
0.00954933
0.00887435
0.00835715
0.00793355
0.00756728
0.00723662
0.00692756
0.00663109
0.00634175
0.00605674
0.00577518
0.00549773
0.00522592
0.00496174
0.00470721
0.00446406
0.00423369
0.00401702
0.00381457
0.00362628
0.00345154
0.00329034
0.00314237
0.00300598
0.00288026
0.00276431
0.0026572
0.00255802
0.00246594
0.00238021
0.00230026
0.00222561
0.00215598
0.00209114
0.00203113
0.00197605
0.00192592
0.00188255
0.00184425
0.0018133
0.00179
0.00177774
0.00177726
0.0017916
0.00183601
0.0310842
0.0117229
0.00813896
0.00686348
0.00620518
0.00577164
0.00545335
0.00520079
0.00498774
0.00479893
0.00462457
0.00445805
0.00429493
0.0041325
0.00396934
0.00380511
0.00364042
0.00347643
0.00331465
0.00315666
0.00300389
0.00285759
0.00271869
0.00258785
0.00246526
0.00235036
0.00224367
0.00214538
0.00205451
0.00197052
0.00189298
0.00182135
0.00175503
0.00169349
0.00163619
0.00158273
0.00153272
0.00148601
0.00144236
0.00140186
0.00136463
0.00133021
0.00130135
0.00127488
0.00125354
0.00123637
0.00122794
0.00122711
0.00123746
0.0012818
0.00855382
0.00370589
0.00296865
0.00272166
0.0025794
0.00246446
0.002368
0.00228633
0.00221424
0.00214826
0.00208572
0.00202461
0.00196342
0.00190128
0.00183764
0.00177237
0.00170574
0.00163825
0.00157061
0.00150356
0.00143782
0.00137404
0.00131276
0.00125442
0.00119917
0.00114613
0.00109593
0.00104948
0.00100626
0.000966146
0.000929041
0.000894749
0.000862986
0.000833523
0.000806055
0.000780439
0.00075641
0.000733977
0.000712922
0.00069336
0.000675508
0.000658305
0.000645386
0.000632017
0.000621232
0.000610922
0.000606511
0.000604138
0.000607731
0.000637913
0.000435738
0.000315446
0.000270977
0.000249892
0.000237493
0.000228559
0.0002215
0.000215673
0.000210644
0.000206187
0.000202113
0.000198275
0.000194545
0.000190832
0.000187067
0.000183201
0.000179211
0.000175092
0.000170856
0.000166528
0.000162138
0.000157722
0.000153314
0.000148953
0.000144655
0.000140463
0.000136398
0.000132476
0.000128702
0.000125077
0.000121606
0.00011829
0.00011513
0.000112122
0.000109264
0.000106547
0.000103969
0.000101519
9.92057e-05
9.70001e-05
9.49529e-05
9.29852e-05
9.12022e-05
8.95565e-05
8.8086e-05
8.68091e-05
8.56844e-05
8.49728e-05
8.44708e-05
8.51876e-05
)
;

boundaryField
{
    floor
    {
        type            nutkWallFunction;
        Cmu             0.09;
        kappa           0.41;
        E               9.8;
        value           nonuniform List<scalar> 
50
(
5.14101e-05
3.53514e-05
2.89835e-05
2.56564e-05
2.34189e-05
2.15465e-05
1.98268e-05
1.81602e-05
1.6491e-05
1.47804e-05
1.30304e-05
1.11586e-05
8.71772e-06
4.72438e-06
0
0
0
0
0
0
3.37815e-07
8.32833e-07
1.08738e-06
1.12121e-06
9.85808e-07
5.18072e-07
0
0
0
0
0
0
0
0
0
0
1.29009e-07
4.77891e-07
7.46858e-07
9.4518e-07
1.09166e-06
1.19614e-06
1.27167e-06
1.32665e-06
1.37075e-06
1.39269e-06
1.39893e-06
1.35059e-06
1.21268e-06
1.05632e-06
)
;
    }
    ceiling
    {
        type            nutkWallFunction;
        Cmu             0.09;
        kappa           0.41;
        E               9.8;
        value           nonuniform List<scalar> 
50
(
5.14097e-05
3.54537e-05
2.93656e-05
2.64336e-05
2.46939e-05
2.34327e-05
2.24315e-05
2.16017e-05
2.0883e-05
2.0244e-05
1.96584e-05
1.9105e-05
1.85658e-05
1.80276e-05
1.74805e-05
1.6917e-05
1.63337e-05
1.57296e-05
1.51063e-05
1.44671e-05
1.38165e-05
1.31595e-05
1.25009e-05
1.18468e-05
1.11993e-05
1.05652e-05
9.9477e-06
9.34932e-06
8.77115e-06
8.21338e-06
7.67697e-06
7.1625e-06
6.67018e-06
6.19973e-06
5.7508e-06
5.32242e-06
4.91449e-06
4.52521e-06
4.15649e-06
3.8036e-06
3.475e-06
3.15801e-06
2.87002e-06
2.60317e-06
2.36435e-06
2.15598e-06
1.97266e-06
1.8555e-06
1.77366e-06
1.88947e-06
)
;
    }
    inlet
    {
        type            calculated;
        value           uniform 0.09;
    }
    outlet
    {
        type            calculated;
        value           nonuniform List<scalar> 
40
(
7.98994e-05
0.000830183
0.00170119
0.00246645
0.00311732
0.00366586
0.00412261
0.00450729
0.00482485
0.00508392
0.0052922
0.00545611
0.00558094
0.00567111
0.00573032
0.00576173
0.00576804
0.00575158
0.00571402
0.00565742
0.00558301
0.00549144
0.00538446
0.00526287
0.00512687
0.00497626
0.0048105
0.0046287
0.00442954
0.00421126
0.00397157
0.00370749
0.0034152
0.00308981
0.00272504
0.00231129
0.00183601
0.0012818
0.000637913
8.51876e-05
)
;
    }
    fixedWalls
    {
        type            empty;
    }
    baffleFacesThermoBaffle1D_master
    {
        type            nutkWallFunction;
        Cmu             0.09;
        kappa           0.41;
        E               9.8;
        value           nonuniform List<scalar> 
16
(
0
0
9.81468e-07
3.08691e-06
4.67807e-06
5.95382e-06
7.03892e-06
7.99363e-06
8.84505e-06
9.61224e-06
1.03052e-05
1.09647e-05
1.15634e-05
1.22369e-05
1.29085e-05
2.28647e-05
)
;
    }
    baffleFacesThermoBaffle1D_slave
    {
        type            nutkWallFunction;
        Cmu             0.09;
        kappa           0.41;
        E               9.8;
        value           nonuniform List<scalar> 
16
(
4.00109e-06
1.34663e-05
1.91799e-05
2.33377e-05
2.6714e-05
2.94172e-05
3.16681e-05
3.36232e-05
3.53658e-05
3.69473e-05
3.84205e-05
3.98504e-05
4.13038e-05
4.28778e-05
4.47025e-05
4.69547e-05
)
;
    }
    baffleFacesThermoBaffle3D_master
    {
        type            nutkWallFunction;
        Cmu             0.09;
        kappa           0.41;
        E               9.8;
        value           nonuniform List<scalar> 
16
(
0
0
0
0
1.61416e-07
1.24788e-06
2.07077e-06
2.74306e-06
3.1611e-06
3.49814e-06
3.49602e-06
3.41267e-06
3.34711e-06
2.61961e-06
2.80857e-06
1.26485e-05
)
;
    }
    baffleFacesThermoBaffle3D_slave
    {
        type            nutkWallFunction;
        Cmu             0.09;
        kappa           0.41;
        E               9.8;
        value           nonuniform List<scalar> 
16
(
0
0
9.18591e-07
2.4137e-06
3.54538e-06
4.23905e-06
4.81373e-06
5.34069e-06
5.89746e-06
6.6645e-06
7.91963e-06
1.00229e-05
1.29682e-05
1.64389e-05
2.06259e-05
2.81967e-05
)
;
    }
}


// ************************************************************************* //
