/*--------------------------------*- C++ -*----------------------------------*\
| =========                 |                                                 |
| \\      /  F ield         | OpenFOAM: The Open Source CFD Toolbox           |
|  \\    /   O peration     | Version:  v1906                                 |
|   \\  /    A nd           | Web:      www.OpenFOAM.com                      |
|    \\/     M anipulation  |                                                 |
\*---------------------------------------------------------------------------*/
FoamFile
{
    version     2.0;
    format      ascii;
    class       volScalarField;
    location    "2500";
    object      T;
}
// * * * * * * * * * * * * * * * * * * * * * * * * * * * * * * * * * * * * * //

dimensions      [0 0 0 1 0 0 0];


internalField   nonuniform List<scalar> 
2000
(
300
300.002
300.006
300.014
300.024
300.04
300.063
300.099
300.158
300.267
300.469
300.829
301.451
302.636
305.807
306.511
304.5
304.432
304.447
304.509
304.596
304.715
304.865
305.048
305.263
305.457
305.795
305.978
309.182
306.348
302.134
302.298
302.224
302.207
302.153
302.11
302.053
301.994
301.927
301.856
301.778
301.693
301.599
301.494
301.373
301.23
301.056
300.836
300.547
300.18
300
300.003
300.009
300.018
300.031
300.048
300.074
300.112
300.172
300.273
300.443
300.723
301.175
301.952
303.75
306.342
304.564
304.413
304.401
304.441
304.525
304.656
304.835
305.064
305.342
305.652
306.001
306.331
309.607
306.48
302.322
302.342
302.325
302.307
302.269
302.225
302.171
302.11
302.042
301.968
301.888
301.802
301.707
301.601
301.48
301.336
301.158
300.928
300.623
300.222
300.001
300.004
300.011
300.021
300.035
300.053
300.08
300.119
300.178
300.272
300.418
300.646
300.993
301.545
302.71
306.037
304.607
304.395
304.358
304.381
304.46
304.596
304.794
305.057
305.388
305.78
306.227
306.768
310.122
306.638
302.583
302.44
302.418
302.397
302.361
302.315
302.259
302.195
302.125
302.048
301.966
301.878
301.782
301.676
301.555
301.412
301.236
301.006
300.692
300.261
300.001
300.005
300.012
300.023
300.037
300.056
300.084
300.122
300.18
300.265
300.393
300.581
300.857
301.278
302.197
305.792
304.606
304.368
304.306
304.313
304.384
304.521
304.733
305.026
305.408
305.885
306.459
307.235
310.529
306.723
302.812
302.55
302.51
302.484
302.447
302.398
302.339
302.272
302.198
302.118
302.034
301.943
301.847
301.741
301.622
301.482
301.312
301.089
300.776
300.315
300.001
300.006
300.013
300.024
300.039
300.058
300.086
300.123
300.177
300.255
300.367
300.526
300.751
301.093
301.9
305.609
304.58
304.328
304.239
304.231
304.291
304.426
304.646
304.965
305.398
305.963
306.677
307.671
310.91
306.825
303.018
302.677
302.611
302.576
302.535
302.482
302.419
302.347
302.268
302.185
302.097
302.005
301.907
301.802
301.685
301.552
301.391
301.183
300.887
300.408
300.002
300.006
300.014
300.025
300.04
300.06
300.086
300.123
300.173
300.244
300.342
300.478
300.668
300.959
301.699
305.465
304.532
304.269
304.158
304.133
304.179
304.307
304.531
304.868
305.345
305.994
306.861
308.085
311.345
306.909
303.232
302.82
302.724
302.677
302.629
302.57
302.5
302.422
302.338
302.249
302.158
302.063
301.965
301.86
301.747
301.621
301.473
301.289
301.033
300.592
300.002
300.007
300.015
300.026
300.041
300.06
300.086
300.121
300.168
300.232
300.319
300.437
300.601
300.858
301.552
305.344
304.47
304.195
304.062
304.018
304.047
304.163
304.383
304.731
305.241
305.965
306.982
308.455
311.809
307.048
303.456
302.978
302.851
302.79
302.731
302.663
302.584
302.498
302.407
302.313
302.217
302.119
302.019
301.916
301.807
301.688
301.556
301.401
301.214
300.996
300.002
300.008
300.016
300.027
300.041
300.06
300.085
300.118
300.162
300.22
300.297
300.401
300.546
300.779
301.439
305.236
304.397
304.106
303.95
303.884
303.894
303.994
304.204
304.55
305.077
305.857
307.007
308.763
312.344
307.129
303.68
303.152
302.996
302.915
302.842
302.761
302.671
302.574
302.474
302.374
302.273
302.172
302.071
301.968
301.863
301.752
301.634
301.506
301.371
301.251
300.002
300.008
300.016
300.027
300.041
300.06
300.084
300.115
300.155
300.208
300.278
300.37
300.5
300.715
301.347
305.139
304.313
304.003
303.823
303.73
303.72
303.802
303.995
304.328
304.852
305.657
306.909
308.951
312.945
307.348
303.92
303.345
303.159
303.056
302.964
302.865
302.759
302.65
302.54
302.432
302.325
302.221
302.118
302.016
301.914
301.81
301.704
301.598
301.498
301.424
300.002
300.009
300.017
300.028
300.041
300.059
300.082
300.111
300.148
300.197
300.26
300.343
300.461
300.662
301.271
305.041
304.219
303.884
303.678
303.56
303.529
303.59
303.761
304.07
304.57
305.363
306.659
308.95
313.603
307.453
304.172
303.563
303.346
303.214
303.095
302.972
302.848
302.723
302.602
302.485
302.372
302.264
302.16
302.058
301.959
301.861
301.766
301.675
301.597
301.546
300.003
300.009
300.017
300.028
300.041
300.058
300.08
300.107
300.142
300.186
300.243
300.319
300.427
300.615
301.205
304.957
304.115
303.749
303.514
303.372
303.321
303.362
303.509
303.786
304.242
304.982
306.241
308.665
314.246
307.821
304.482
303.818
303.56
303.389
303.233
303.081
302.933
302.791
302.657
302.531
302.413
302.301
302.195
302.094
301.998
301.905
301.818
301.738
301.674
301.635
300.003
300.009
300.018
300.028
300.041
300.057
300.078
300.103
300.135
300.176
300.228
300.297
300.396
300.574
301.145
304.852
303.998
303.594
303.329
303.167
303.099
303.123
303.245
303.485
303.884
304.535
305.665
307.983
314.153
307.987
304.814
304.118
303.806
303.577
303.373
303.184
303.01
302.849
302.703
302.568
302.444
302.33
302.223
302.123
302.028
301.94
301.859
301.788
301.733
301.701
300.003
300.009
300.018
300.028
300.04
300.056
300.075
300.099
300.129
300.167
300.214
300.277
300.368
300.534
301.088
304.79
303.863
303.407
303.115
302.941
302.864
302.876
302.976
303.179
303.515
304.054
304.978
306.894
312.566
308.607
305.274
304.49
304.081
303.767
303.501
303.271
303.07
302.892
302.734
302.593
302.465
302.349
302.241
302.142
302.051
301.966
301.891
301.826
301.776
301.749
300.003
300.01
300.018
300.028
300.04
300.055
300.073
300.096
300.123
300.158
300.201
300.258
300.341
300.496
301.032
304.642
303.679
303.17
302.866
302.694
302.62
302.626
302.71
302.878
303.151
303.575
304.264
305.604
309.533
308.879
305.884
304.936
304.355
303.929
303.596
303.327
303.103
302.912
302.747
302.602
302.472
302.356
302.25
302.153
302.064
301.983
301.912
301.852
301.807
301.782
300.003
300.01
300.018
300.027
300.039
300.053
300.071
300.092
300.118
300.15
300.189
300.241
300.316
300.456
300.974
304.678
303.392
302.852
302.574
302.427
302.368
302.376
302.45
302.59
302.809
303.13
303.611
304.446
306.881
310.214
306.802
305.338
304.531
304.005
303.626
303.335
303.1
302.905
302.738
302.593
302.465
302.35
302.247
302.153
302.068
301.991
301.924
301.868
301.827
301.804
300.003
300.01
300.017
300.027
300.038
300.052
300.069
300.089
300.113
300.142
300.178
300.225
300.292
300.412
300.889
303.856
302.805
302.425
302.238
302.145
302.114
302.133
302.202
302.321
302.496
302.737
303.061
303.524
304.639
309.677
306.697
305.255
304.452
303.934
303.564
303.281
303.053
302.864
302.703
302.563
302.44
302.33
302.231
302.142
302.061
301.989
301.926
301.874
301.836
301.815
300.003
300.009
300.017
300.026
300.037
300.051
300.066
300.085
300.108
300.135
300.169
300.211
300.269
300.362
300.58
301.765
301.952
301.931
301.885
301.861
301.864
301.9
301.968
302.073
302.216
302.4
302.627
302.907
303.375
305.261
305.095
304.557
304.083
303.704
303.404
303.161
302.959
302.789
302.641
302.512
302.398
302.296
302.204
302.12
302.045
301.978
301.92
301.871
301.836
301.816
300.003
300.009
300.017
300.026
300.036
300.049
300.064
300.082
300.103
300.129
300.16
300.199
300.251
300.33
300.492
301.047
301.359
301.498
301.557
301.593
301.63
301.681
301.752
301.847
301.968
302.114
302.285
302.488
302.8
303.639
303.884
303.803
303.6
303.379
303.172
302.988
302.825
302.682
302.554
302.441
302.339
302.247
302.163
302.087
302.019
301.957
301.904
301.86
301.827
301.809
300.003
300.009
300.017
300.025
300.035
300.048
300.062
300.079
300.099
300.123
300.152
300.188
300.236
300.307
300.438
300.742
301.003
301.175
301.283
301.356
301.418
301.482
301.556
301.644
301.749
301.87
302.008
302.169
302.4
302.842
303.103
303.172
303.13
303.027
302.905
302.781
302.661
302.549
302.446
302.351
302.264
302.184
302.111
302.044
301.982
301.928
301.88
301.84
301.81
301.793
300.003
300.009
300.016
300.025
300.034
300.046
300.06
300.076
300.095
300.118
300.145
300.179
300.223
300.287
300.394
300.586
300.785
300.945
301.065
301.156
301.232
301.304
301.38
301.463
301.557
301.661
301.777
301.911
302.089
302.358
302.572
302.685
302.715
302.691
302.633
302.559
302.48
302.399
302.321
302.246
302.175
302.109
302.047
301.99
301.937
301.889
301.847
301.812
301.786
301.771
300.003
300.009
300.016
300.024
300.033
300.045
300.058
300.073
300.091
300.113
300.139
300.17
300.212
300.269
300.357
300.492
300.643
300.781
300.896
300.991
301.072
301.148
301.223
301.302
301.387
301.48
301.58
301.694
301.836
302.02
302.189
302.306
302.368
302.386
302.373
302.339
302.293
302.24
302.185
302.13
302.076
302.024
301.974
301.927
301.883
301.843
301.807
301.777
301.754
301.741
300.003
300.008
300.015
300.023
300.032
300.043
300.056
300.071
300.088
300.108
300.133
300.163
300.201
300.252
300.325
300.427
300.545
300.66
300.764
300.856
300.937
301.012
301.086
301.161
301.239
301.322
301.411
301.509
301.625
301.763
301.897
302.005
302.078
302.119
302.133
302.127
302.107
302.079
302.045
302.008
301.969
301.93
301.892
301.856
301.821
301.789
301.76
301.735
301.717
301.706
300.002
300.008
300.015
300.022
300.031
300.042
300.054
300.068
300.084
300.104
300.127
300.155
300.19
300.237
300.298
300.38
300.473
300.57
300.662
300.746
300.823
300.896
300.966
301.036
301.108
301.183
301.263
301.349
301.446
301.555
301.665
301.761
301.835
301.887
301.917
301.93
301.93
301.92
301.903
301.882
301.857
301.832
301.805
301.778
301.753
301.729
301.707
301.688
301.673
301.664
300.002
300.008
300.014
300.022
300.03
300.04
300.052
300.065
300.081
300.1
300.122
300.148
300.181
300.222
300.275
300.342
300.419
300.5
300.58
300.656
300.728
300.796
300.862
300.927
300.994
301.062
301.133
301.209
301.293
301.383
301.475
301.559
301.63
301.686
301.725
301.75
301.764
301.768
301.765
301.756
301.744
301.729
301.713
301.696
301.679
301.663
301.648
301.634
301.624
301.618
300.002
300.007
300.014
300.021
300.029
300.039
300.05
300.063
300.078
300.096
300.116
300.141
300.171
300.208
300.255
300.311
300.375
300.444
300.513
300.581
300.647
300.71
300.771
300.832
300.893
300.955
301.019
301.087
301.16
301.237
301.315
301.389
301.455
301.511
301.554
301.587
301.609
301.623
301.631
301.633
301.631
301.626
301.619
301.611
301.602
301.593
301.584
301.576
301.571
301.567
300.002
300.007
300.013
300.02
300.028
300.037
300.048
300.061
300.075
300.092
300.112
300.135
300.162
300.196
300.237
300.285
300.339
300.398
300.459
300.519
300.578
300.636
300.692
300.748
300.804
300.861
300.919
300.98
301.043
301.11
301.178
301.244
301.305
301.358
301.403
301.439
301.468
301.489
301.504
301.514
301.52
301.523
301.524
301.523
301.522
301.519
301.517
301.515
301.513
301.512
300.002
300.007
300.012
300.019
300.027
300.036
300.046
300.058
300.072
300.088
300.107
300.128
300.154
300.184
300.22
300.262
300.309
300.36
300.413
300.467
300.52
300.572
300.624
300.675
300.726
300.778
300.83
300.885
300.941
301
301.06
301.118
301.174
301.224
301.268
301.306
301.338
301.364
301.384
301.401
301.413
301.423
301.43
301.435
301.44
301.443
301.447
301.45
301.452
301.454
300.002
300.006
300.012
300.018
300.026
300.034
300.044
300.056
300.069
300.084
300.102
300.122
300.146
300.174
300.206
300.243
300.284
300.328
300.375
300.422
300.47
300.517
300.564
300.61
300.657
300.704
300.752
300.801
300.851
300.903
300.956
301.008
301.059
301.106
301.149
301.187
301.22
301.249
301.273
301.293
301.31
301.325
301.337
301.348
301.358
301.366
301.375
301.382
301.389
301.393
300.002
300.006
300.011
300.017
300.024
300.033
300.043
300.054
300.066
300.081
300.097
300.116
300.138
300.164
300.192
300.225
300.261
300.3
300.341
300.383
300.426
300.469
300.511
300.553
300.596
300.639
300.682
300.726
300.771
300.818
300.865
300.912
300.958
301.001
301.042
301.079
301.113
301.143
301.169
301.192
301.213
301.231
301.247
301.262
301.276
301.289
301.302
301.313
301.324
301.331
300.002
300.006
300.01
300.016
300.023
300.031
300.041
300.051
300.064
300.077
300.093
300.111
300.131
300.154
300.18
300.209
300.241
300.276
300.312
300.35
300.388
300.426
300.465
300.503
300.542
300.58
300.62
300.66
300.7
300.742
300.784
300.826
300.868
300.908
300.947
300.982
301.015
301.046
301.073
301.098
301.121
301.142
301.161
301.179
301.196
301.212
301.228
301.244
301.258
301.267
300.001
300.005
300.01
300.015
300.022
300.03
300.039
300.049
300.061
300.074
300.089
300.105
300.124
300.145
300.169
300.195
300.224
300.254
300.287
300.32
300.354
300.389
300.423
300.458
300.493
300.528
300.564
300.6
300.637
300.674
300.712
300.75
300.788
300.825
300.861
300.895
300.927
300.957
300.985
301.011
301.035
301.057
301.078
301.098
301.118
301.137
301.156
301.174
301.191
301.203
300.001
300.005
300.009
300.014
300.021
300.029
300.037
300.047
300.058
300.071
300.084
300.1
300.117
300.137
300.158
300.182
300.208
300.235
300.264
300.294
300.324
300.355
300.387
300.418
300.45
300.482
300.514
300.547
300.58
300.614
300.648
300.682
300.717
300.751
300.784
300.816
300.847
300.876
300.903
300.929
300.954
300.977
301
301.021
301.042
301.063
301.084
301.104
301.124
301.139
300.001
300.004
300.008
300.014
300.02
300.027
300.036
300.045
300.056
300.067
300.08
300.095
300.111
300.129
300.148
300.17
300.193
300.217
300.243
300.27
300.298
300.326
300.354
300.382
300.411
300.44
300.469
300.499
300.529
300.559
300.59
300.621
300.653
300.684
300.715
300.745
300.774
300.802
300.828
300.854
300.879
300.902
300.925
300.948
300.97
300.992
301.014
301.036
301.058
301.075
300.001
300.004
300.008
300.013
300.019
300.026
300.034
300.043
300.053
300.064
300.076
300.09
300.105
300.121
300.139
300.158
300.179
300.201
300.225
300.249
300.273
300.299
300.324
300.35
300.376
300.402
300.429
300.455
300.483
300.51
300.538
300.566
300.595
300.623
300.652
300.68
300.707
300.734
300.759
300.784
300.809
300.832
300.855
300.878
300.901
300.923
300.946
300.969
300.992
301.012
300.001
300.003
300.007
300.012
300.018
300.024
300.032
300.041
300.05
300.061
300.072
300.085
300.099
300.114
300.13
300.148
300.167
300.187
300.207
300.229
300.251
300.274
300.297
300.32
300.344
300.368
300.392
300.416
300.441
300.466
300.491
300.517
300.543
300.569
300.595
300.621
300.646
300.671
300.696
300.72
300.744
300.767
300.79
300.812
300.835
300.857
300.881
300.904
300.928
300.95
300.001
300.003
300.006
300.011
300.017
300.023
300.03
300.038
300.047
300.057
300.068
300.08
300.093
300.107
300.122
300.138
300.155
300.173
300.192
300.211
300.231
300.252
300.272
300.293
300.315
300.336
300.358
300.38
300.402
300.425
300.448
300.471
300.495
300.519
300.543
300.567
300.59
300.614
300.637
300.66
300.683
300.705
300.728
300.75
300.772
300.794
300.817
300.841
300.866
300.89
300
300.002
300.006
300.01
300.015
300.022
300.028
300.036
300.045
300.054
300.064
300.075
300.087
300.099
300.113
300.128
300.143
300.16
300.176
300.194
300.212
300.231
300.249
300.268
300.287
300.307
300.327
300.347
300.367
300.387
300.408
300.429
300.451
300.472
300.494
300.517
300.539
300.561
300.583
300.605
300.626
300.648
300.669
300.691
300.712
300.734
300.756
300.78
300.803
300.831
300
300.002
300.005
300.009
300.014
300.02
300.026
300.033
300.041
300.05
300.059
300.07
300.08
300.092
300.105
300.118
300.132
300.147
300.162
300.177
300.194
300.21
300.227
300.244
300.261
300.279
300.297
300.315
300.333
300.351
300.37
300.39
300.409
300.429
300.449
300.469
300.49
300.51
300.531
300.551
300.572
300.592
300.613
300.633
300.654
300.675
300.696
300.719
300.741
300.772
300
300.002
300.004
300.008
300.013
300.018
300.024
300.03
300.038
300.046
300.054
300.064
300.074
300.084
300.095
300.107
300.12
300.133
300.146
300.16
300.174
300.189
300.204
300.219
300.235
300.25
300.266
300.282
300.299
300.315
300.332
300.349
300.367
300.385
300.403
300.421
300.44
300.459
300.478
300.497
300.516
300.535
300.554
300.574
300.593
300.614
300.632
300.656
300.673
300.709
300
300.001
300.003
300.006
300.01
300.015
300.02
300.026
300.033
300.04
300.047
300.055
300.064
300.073
300.083
300.093
300.104
300.115
300.126
300.138
300.15
300.163
300.176
300.189
300.202
300.216
300.229
300.243
300.258
300.272
300.287
300.302
300.318
300.333
300.349
300.366
300.382
300.399
300.416
300.434
300.45
300.469
300.485
300.506
300.519
300.544
300.553
300.584
300.588
300.628
)
;

boundaryField
{
    floor
    {
        type            zeroGradient;
    }
    ceiling
    {
        type            zeroGradient;
    }
    inlet
    {
        type            fixedValue;
        value           uniform 300;
    }
    outlet
    {
        type            inletOutlet;
        inletValue      uniform 300;
        value           nonuniform List<scalar> 
40
(
300
300
300
300
300
300
301.008
301.259
301.428
301.548
301.636
301.701
301.749
301.782
301.804
301.815
301.816
301.809
301.793
301.771
301.741
301.706
301.664
301.618
301.567
301.512
301.454
301.393
301.331
301.267
301.203
301.139
301.075
301.012
300.95
300.89
300.831
300.772
300.709
300.627
)
;
    }
    fixedWalls
    {
        type            empty;
    }
    baffleFacesThermoBaffle1D_master
    {
        type            compressible::thermalBaffle1D<hConstSolidThermoPhysics>;
        refValue        nonuniform List<scalar> 
16
(
323.809
319.271
316.782
315.126
314.037
313.27
312.688
312.219
311.828
311.49
311.196
310.916
310.663
310.373
310.111
309.1
)
;
        refGradient     uniform 0;
        valueFraction   nonuniform List<scalar> 
16
(
0.987125
0.987125
0.986496
0.985138
0.984106
0.983277
0.982571
0.981948
0.981393
0.980892
0.98044
0.980009
0.979617
0.979176
0.978737
0.972314
)
;
        value           nonuniform List<scalar> 
16
(
323.587
319.104
316.637
314.987
313.903
313.14
312.56
312.093
311.703
311.367
311.074
310.795
310.543
310.254
309.993
308.957
)
;
        sampleMode      nearestPatchFace;
        sampleRegion    region0;
        samplePatch     baffleFacesThermoBaffle1D_slave;
        coupleGroup     baffleFacesThermoBaffle1D;
        thickness       uniform 0.005;
        qs              uniform 100;
        specie
        {
            molWeight       20;
        }
        equationOfState
        {
            rho             10;
        }
        thermodynamics
        {
            Cp              10;
            Hf              0;
        }
        transport
        {
            kappa           1;
        }
        qrPrevious      uniform 0;
        qr              none;
        qrRelaxation    1;
    }
    baffleFacesThermoBaffle1D_slave
    {
        type            compressible::thermalBaffle1D<hConstSolidThermoPhysics>;
        refValue        nonuniform List<scalar> 
16
(
323.837
319.354
316.887
315.237
314.153
313.39
312.81
312.343
311.953
311.617
311.324
311.045
310.793
310.504
310.243
309.207
)
;
        refGradient     uniform 0;
        valueFraction   nonuniform List<scalar> 
16
(
0.984619
0.978622
0.974965
0.972292
0.970125
0.968393
0.966952
0.965702
0.96459
0.963581
0.962643
0.961733
0.960811
0.959811
0.958659
0.957173
)
;
        value           nonuniform List<scalar> 
16
(
323.559
319.02
316.532
314.876
313.787
313.02
312.438
311.969
311.578
311.24
310.945
310.666
310.413
310.123
309.86
308.851
)
;
        sampleMode      nearestPatchFace;
        sampleRegion    region0;
        samplePatch     baffleFacesThermoBaffle1D_master;
        coupleGroup     baffleFacesThermoBaffle1D;
        qrPrevious      uniform 0;
        qr              none;
        qrRelaxation    1;
    }
    baffleFacesThermoBaffle3D_master
    {
        type            compressible::thermalBaffle;
        refValue        nonuniform List<scalar> 
16
(
375.155
375.222
375.168
374.882
374.175
371.869
370.128
368.768
368.004
367.359
367.346
367.186
367.119
367.508
366.473
353.765
)
;
        refGradient     uniform 0;
        valueFraction   nonuniform List<scalar> 
16
(
0.950415
0.950415
0.950415
0.950415
0.950082
0.947864
0.946172
0.944784
0.943919
0.943221
0.943226
0.943394
0.943526
0.945025
0.94462
0.923973
)
;
        value           nonuniform List<scalar> 
16
(
371.731
371.804
371.765
371.501
370.813
368.482
366.732
365.365
364.602
363.958
363.967
363.835
363.815
364.285
363.357
350.413
)
;
        Tnbr            T;
        qrNbr           none;
        qr              none;
        thermalInertia  false;
        thicknessLayers 0();
        kappaLayers     0();
        kappaMethod     fluidThermo;
        kappa           none;
        alphaAni        none;
        extrudeModel    linearNormal;
        nLayers         50;
        expansionRatio  1;
        columnCells     false;
        linearNormalCoeffs 
        {
            thickness       0.02;
        }

        region          baffle3DRegion;
        active          yes;
        thermoType      
        {
            type            heSolidThermo;
            mixture         pureMixture;
            transport       constIso;
            thermo          hConst;
            equationOfState rhoConst;
            specie          specie;
            energy          sensibleEnthalpy;
        }

        mixture         
        {
            specie
            {
                molWeight       20;
            }
            transport
            {
                kappa           0.01;
            }
            thermodynamics
            {
                Hf              0;
                Cp              15;
            }
            equationOfState
            {
                rho             80;
            }
        }

        radiation       
        {
            radiationModel  opaqueSolid;
            absorptionEmissionModel none;
            scatterModel    none;
            transmissivityModel none;
        }

    }
    baffleFacesThermoBaffle3D_slave
    {
        type            compressible::thermalBaffle;
        refValue        nonuniform List<scalar> 
16
(
377.551
377.587
375.925
373.285
371.321
370.124
369.261
368.632
368.096
367.351
365.965
363.025
358.14
351.857
345.475
338.092
)
;
        refGradient     uniform 0;
        valueFraction   nonuniform List<scalar> 
16
(
0.950415
0.950415
0.948558
0.945523
0.94321
0.941785
0.940605
0.939525
0.938387
0.936817
0.934238
0.929871
0.923642
0.916139
0.907037
0.890876
)
;
        value           nonuniform List<scalar> 
16
(
374.176
374.224
372.541
369.867
367.89
366.702
365.849
365.228
364.698
363.955
362.564
359.598
354.66
348.308
341.887
334.441
)
;
        Tnbr            T;
        qrNbr           none;
        qr              none;
        thermalInertia  false;
        thicknessLayers 0();
        kappaLayers     0();
        kappaMethod     fluidThermo;
        kappa           none;
        alphaAni        none;
    }
}


// ************************************************************************* //
