/*--------------------------------*- C++ -*----------------------------------*\
| =========                 |                                                 |
| \\      /  F ield         | OpenFOAM: The Open Source CFD Toolbox           |
|  \\    /   O peration     | Version:  v1906                                 |
|   \\  /    A nd           | Web:      www.OpenFOAM.com                      |
|    \\/     M anipulation  |                                                 |
\*---------------------------------------------------------------------------*/
FoamFile
{
    version     2.0;
    format      ascii;
    class       volScalarField;
    location    "0.4";
    object      p;
}
// * * * * * * * * * * * * * * * * * * * * * * * * * * * * * * * * * * * * * //

dimensions      [0 2 -2 0 0 0 0];


internalField   nonuniform List<scalar> 
4800
(
-5.60724e-11
-1.99338e-06
0.000106217
-2.59287e-05
1.28545e-05
0.000347948
0.000562837
0.000466584
0.00060824
0.000815228
0.000868139
0.000813706
0.00082184
0.000941234
0.00109587
0.0012563
0.00152275
0.0019895
0.0027512
0.00342547
2.38327e-06
-4.70781e-06
0.000106686
-2.77048e-05
1.5514e-05
0.000346986
0.000566258
0.000461362
0.000609987
0.000807962
0.000875659
0.000815036
0.000829028
0.000945829
0.00110438
0.00125259
0.00152097
0.00192593
0.00250841
0.00304736
2.23078e-06
-6.4064e-06
0.000107557
-2.85027e-05
1.64182e-05
0.000347068
0.000565976
0.000459851
0.000610025
0.000805845
0.000878032
0.000820321
0.000833281
0.000952484
0.00110833
0.00124421
0.00146693
0.00179635
0.00229257
0.00276114
2.92417e-06
-8.30725e-06
0.000108749
-3.02077e-05
1.70135e-05
0.000348035
0.000563816
0.000461451
0.000606121
0.000810627
0.000871311
0.000830922
0.000834048
0.000970173
0.00110992
0.00121855
0.00139853
0.0016607
0.00208509
0.00249955
2.57883e-06
-9.71177e-06
0.000109415
-3.08803e-05
1.60562e-05
0.000349985
0.000560105
0.000465887
0.000599498
0.000817558
0.000868137
0.000839226
0.000841787
0.000961912
0.00110334
0.00116607
0.00130028
0.00152451
0.00187966
0.00224448
1.61723e-06
-1.00526e-05
0.000109122
-3.00085e-05
1.30224e-05
0.000353421
0.000554032
0.000472826
0.000593604
0.00082152
0.000874808
0.000842876
0.000848961
0.000954237
0.00107723
0.00110154
0.00119783
0.00138194
0.00167716
0.00199823
-3.0569e-07
-9.1325e-06
0.000107781
-2.79818e-05
8.18015e-06
0.000357222
0.000548712
0.000476281
0.000592442
0.00081995
0.000886102
0.000847148
0.000849193
0.000950919
0.00102675
0.00102728
0.00108773
0.00123353
0.00147799
0.00175939
-3.88023e-06
-6.22341e-06
0.000105566
-2.50377e-05
2.4664e-06
0.000359055
0.000547414
0.000474474
0.000595606
0.000804668
0.000890006
0.00085389
0.000841081
0.000920795
0.000975441
0.000947781
0.000969946
0.00107954
0.00128052
0.00152681
-9.2718e-06
-1.06191e-06
0.000102797
-2.24556e-05
-1.87482e-06
0.000357062
0.000550894
0.000468425
0.000597323
0.000812796
0.000885235
0.000855194
0.000827934
0.000875603
0.000913975
0.000864007
0.000847314
0.000920807
0.00108519
0.00129993
-1.68428e-05
6.28105e-06
0.000101206
-2.28772e-05
-3.48161e-06
0.000350508
0.000555391
0.000467605
0.00059362
0.00082823
0.000879528
0.000842055
0.000808381
0.000824057
0.000839542
0.000774217
0.00072393
0.00076039
0.000891662
0.00107922
-2.65214e-05
1.50148e-05
0.000102529
-2.75691e-05
-2.03246e-06
0.000341461
0.000556209
0.000474401
0.00058426
0.000834902
0.00088148
0.000815971
0.000776318
0.000769285
0.000756481
0.000674932
0.000598723
0.000599606
0.00069868
0.000865864
-3.80556e-05
2.35152e-05
0.000109056
-3.73529e-05
-7.85298e-07
0.00033487
0.000550296
0.000487269
0.000577796
0.000828827
0.000879711
0.000787247
0.000731989
0.000709046
0.000668514
0.000567976
0.00046886
0.000439032
0.000508022
0.000659511
-5.05558e-05
2.95927e-05
0.000121367
-4.94044e-05
-5.46028e-06
0.000333735
0.000538951
0.000495433
0.000577431
0.000810949
0.000864498
0.000754382
0.000680838
0.000642646
0.000577269
0.000457073
0.000335216
0.000278192
0.00031999
0.000456055
-6.28366e-05
3.10163e-05
0.000138466
-5.76563e-05
-1.9828e-05
0.000336438
0.000528056
0.000493385
0.000581128
0.000795875
0.000835869
0.00071104
0.000621277
0.000571116
0.000484139
0.000344008
0.00020166
0.000118614
0.0001348
0.000254236
-7.35083e-05
2.63319e-05
0.000158145
-5.53341e-05
-4.50468e-05
0.00033559
0.000523873
0.000480409
0.00057539
0.000783858
0.00080509
0.000657257
0.000551514
0.000493604
0.000388995
0.000228366
7.0062e-05
-3.50373e-05
-4.46148e-05
5.62365e-05
-8.16723e-05
1.47816e-05
0.000174554
-3.77265e-05
-7.60122e-05
0.000321504
0.000527039
0.000465954
0.000554861
0.000763692
0.000774239
0.000602283
0.000472888
0.000406653
0.000289591
0.000109983
-6.02556e-05
-0.000180582
-0.000214013
-0.000132507
-8.72272e-05
-1.48842e-06
0.000182412
-6.89761e-06
-0.000100466
0.000289712
0.000527546
0.000455915
0.00052289
0.000729324
0.000736934
0.000547287
0.00039338
0.000312724
0.000185038
-1.20722e-05
-0.000191884
-0.000319659
-0.000371198
-0.000307086
-9.05942e-05
-1.93596e-05
0.00017879
2.92351e-05
-0.000110772
0.000242406
0.000512212
0.000448733
0.000491179
0.000683157
0.000687998
0.000486417
0.000313242
0.000220254
8.00143e-05
-0.000137886
-0.000328638
-0.000455326
-0.000514718
-0.000463834
-9.27361e-05
-3.65242e-05
0.000162721
6.21489e-05
-0.000103944
0.000194099
0.000477039
0.000428534
0.000459334
0.000638281
0.000629907
0.00041327
0.000226478
0.000128293
-1.74873e-05
-0.000258404
-0.000470416
-0.00059355
-0.00064706
-0.000601374
-9.48929e-05
-5.20024e-05
0.000139235
8.49759e-05
-8.5387e-05
0.000154475
0.000427474
0.000387393
0.000412484
0.000595879
0.000581424
0.000331152
0.000121878
2.94248e-05
-0.000108106
-0.000363111
-0.000605771
-0.000737766
-0.000776573
-0.00072303
-9.75922e-05
-6.55982e-05
0.000113174
9.53098e-05
-6.84103e-05
0.000126127
0.000379231
0.000327002
0.000336411
0.000543007
0.000549432
0.000263731
3.25763e-06
-9.36209e-05
-0.000201509
-0.000451114
-0.000722857
-0.000878184
-0.000909406
-0.000837203
-0.0001011
-7.84518e-05
8.59646e-05
9.51784e-05
-5.8673e-05
9.9913e-05
0.000338565
0.000268086
0.000228883
0.000450129
0.000524694
0.000230748
-0.000106723
-0.00023931
-0.000317735
-0.000532777
-0.000817878
-0.00100183
-0.00104028
-0.000951759
-0.000105445
-9.15408e-05
5.69742e-05
8.94896e-05
-5.7571e-05
6.37501e-05
0.000303019
0.000225169
0.000110307
0.000307852
0.000466034
0.000229803
-0.000170801
-0.000388131
-0.000461121
-0.000626723
-0.000897565
-0.00110472
-0.00115873
-0.00106552
-0.000110805
-0.000105333
2.4854e-05
7.84543e-05
-6.08641e-05
1.46996e-05
0.00025451
0.000200642
1.49887e-05
0.000125023
0.000342005
0.000220777
-0.000183538
-0.000494125
-0.000616173
-0.000742465
-0.000977009
-0.00119168
-0.00126192
-0.0011732
-0.000117863
-0.000119388
-1.22205e-05
6.00904e-05
-6.42572e-05
-4.43921e-05
0.000180983
0.000179362
-4.41966e-05
-5.07119e-05
0.000152466
0.000150136
-0.000174107
-0.000541363
-0.000739499
-0.00086886
-0.00106266
-0.00126918
-0.00135537
-0.00127669
-0.000127791
-0.000133626
-5.35037e-05
3.06003e-05
-6.90761e-05
-9.98426e-05
8.38154e-05
0.000131874
-7.19778e-05
-0.000184048
-6.20481e-05
7.75866e-06
-0.000202806
-0.000546982
-0.000808647
-0.000973164
-0.00114831
-0.00133873
-0.00144253
-0.00138322
-0.000141456
-0.000147576
-9.49764e-05
-1.19651e-05
-7.88066e-05
-0.00014681
-2.76676e-05
5.16138e-05
-0.000101861
-0.000270312
-0.000249352
-0.000185989
-0.000295024
-0.00056778
-0.000835222
-0.00103373
-0.00121239
-0.00139507
-0.00151789
-0.00149101
-0.000159431
-0.000164669
-0.000133954
-6.64538e-05
-0.000104118
-0.00018497
-0.000132862
-5.9861e-05
-0.000157329
-0.000328576
-0.00039161
-0.000375228
-0.000441408
-0.000634128
-0.00086513
-0.00106011
-0.00124022
-0.00142395
-0.00156753
-0.00159117
-0.000182083
-0.00018581
-0.000171826
-0.000126588
-0.000146166
-0.00022363
-0.000224524
-0.000183238
-0.000243501
-0.000391022
-0.000492983
-0.000530117
-0.000596407
-0.000742402
-0.000926046
-0.00109216
-0.00124772
-0.00142052
-0.00157965
-0.00165822
-0.000209079
-0.000212508
-0.000209801
-0.000188035
-0.000203477
-0.000271555
-0.000305875
-0.000299541
-0.000351584
-0.000472908
-0.000582687
-0.000651322
-0.000730711
-0.0008603
-0.00101491
-0.00115211
-0.00127243
-0.00140868
-0.00155982
-0.00167641
-0.000239909
-0.000245158
-0.000250868
-0.000248461
-0.000271006
-0.000331352
-0.000382424
-0.000407329
-0.000462814
-0.000569674
-0.000677319
-0.000756332
-0.00084173
-0.000964365
-0.0011086
-0.00123515
-0.00132895
-0.0014224
-0.00153981
-0.0016571
-0.000274658
-0.000283098
-0.000296779
-0.000309059
-0.000341437
-0.000401564
-0.000461543
-0.000506961
-0.000570362
-0.000670962
-0.000776658
-0.000859766
-0.000941106
-0.00105368
-0.0011906
-0.00131861
-0.00140792
-0.00147137
-0.0015459
-0.0016332
-0.000313501
-0.000325322
-0.00034689
-0.000370942
-0.000412609
-0.000477109
-0.000544545
-0.000602533
-0.000672447
-0.00076998
-0.000875276
-0.000962726
-0.00103974
-0.00113674
-0.00126093
-0.0013873
-0.00148526
-0.00154329
-0.00158505
-0.00163503
-0.000356169
-0.00037107
-0.000400208
-0.000434394
-0.000483817
-0.000553375
-0.000628212
-0.000696563
-0.00076992
-0.000864419
-0.000968597
-0.00106057
-0.00113765
-0.00122088
-0.00132611
-0.00144301
-0.00154544
-0.00161165
-0.00164571
-0.00167131
-0.000401871
-0.000419509
-0.000455006
-0.000498597
-0.000554632
-0.000628427
-0.000709561
-0.000786716
-0.000863813
-0.000954229
-0.00105549
-0.00115022
-0.00122997
-0.00130536
-0.00139234
-0.00149257
-0.00159016
-0.0016642
-0.00170667
-0.00172793
-0.000449232
-0.00046936
-0.0005098
-0.000561627
-0.000623815
-0.000700932
-0.000786622
-0.000870702
-0.000952113
-0.00103957
-0.00113589
-0.00123061
-0.00131323
-0.00138596
-0.00146049
-0.00154335
-0.0016292
-0.00170436
-0.00175632
-0.00178605
-0.00049634
-0.00051879
-0.000562872
-0.000621229
-0.000689239
-0.000769141
-0.000857803
-0.00094688
-0.00103246
-0.0011187
-0.00120975
-0.00130149
-0.00138526
-0.00145839
-0.00152699
-0.00159821
-0.00167251
-0.0017426
-0.00179906
-0.0018385
-0.000540673
-0.000565212
-0.000611985
-0.000674942
-0.00074804
-0.000830532
-0.000920896
-0.00101332
-0.00110267
-0.0011892
-0.00127621
-0.00136326
-0.00144525
-0.00151819
-0.00158411
-0.00164876
-0.00171549
-0.0017823
-0.00184358
-0.00189428
-0.000579875
-0.000605789
-0.000654108
-0.000719517
-0.00079614
-0.000880756
-0.000971761
-0.00106563
-0.00115773
-0.00124584
-0.00133098
-0.00141412
-0.00149359
-0.00156637
-0.00163147
-0.00169128
-0.00174943
-0.00180787
-0.00186566
-0.00192022
-0.00061322
-0.000641966
-0.000693165
-0.000761702
-0.000842243
-0.000930466
-0.00102365
-0.00111894
-0.00121285
-0.00130266
-0.00138776
-0.00146881
-0.00154582
-0.00161755
-0.00168286
-0.00174236
-0.00179821
-0.00185272
-0.00190704
-0.00196099
0.00405726
0.00397261
0.00364779
0.0034325
0.0032715
0.00300293
0.00259555
0.00214414
0.00173371
0.00137083
0.000996987
0.000595595
0.000170752
-0.000245566
-0.000637857
-0.0010197
-0.00136088
-0.00172429
-0.00217193
-0.00269901
-0.0033634
-0.00414774
-0.00492996
-0.00564678
-0.00634502
-0.00707581
-0.00776962
-0.00828386
-0.00847049
-0.00824003
-0.00783095
-0.00757225
-0.00741438
-0.00726037
-0.00705186
-0.00665206
-0.0063472
-0.00644373
-0.00661436
-0.00661379
-0.00660277
-0.00663456
-0.00668649
-0.0068034
-0.00694347
-0.00703012
-0.00710811
-0.00722826
-0.00730648
-0.00732305
-0.00738089
-0.00744606
-0.00746529
-0.00752946
-0.00762314
-0.00764971
-0.00768777
-0.00777598
-0.00780082
-0.00777931
-0.007835
-0.00792557
-0.00795278
-0.00795708
-0.00800172
-0.00806071
-0.00809696
-0.0081302
-0.00817615
-0.00823079
-0.00828435
-0.00834046
-0.00840095
-0.0084637
-0.0085293
-0.00859542
-0.00866478
-0.00873538
-0.00880827
-0.00888439
-0.00896152
-0.00904337
-0.00912578
-0.00921194
-0.00930045
-0.00938945
-0.00948341
-0.00957586
-0.0096725
-0.00977067
-0.00986766
-0.00997139
-0.0100706
-0.010175
-0.0102799
-0.0103824
-0.010489
-0.0105929
-0.0106912
-0.0107923
0.00345222
0.00359831
0.0035354
0.00341354
0.00325697
0.0029752
0.00256206
0.00211175
0.00170435
0.00134428
0.000971961
0.000571666
0.000146655
-0.000269207
-0.000659206
-0.00104114
-0.00138105
-0.00174107
-0.00218807
-0.0027123
-0.00336945
-0.00414889
-0.00492487
-0.00562817
-0.00631187
-0.00703602
-0.00772758
-0.00824506
-0.00844028
-0.00821611
-0.00781343
-0.00756143
-0.00740536
-0.00725161
-0.00704568
-0.00664543
-0.00633915
-0.00643928
-0.0066107
-0.00660971
-0.00660005
-0.00663215
-0.00668354
-0.00680088
-0.00694116
-0.00702744
-0.0071056
-0.00722635
-0.00730467
-0.00732132
-0.00737971
-0.00744521
-0.00746431
-0.00752883
-0.00762292
-0.00764912
-0.00768725
-0.00777609
-0.00780095
-0.00777901
-0.0078349
-0.00792581
-0.00795284
-0.00795705
-0.00800181
-0.00806098
-0.00809711
-0.00813031
-0.00817627
-0.0082309
-0.00828441
-0.0083405
-0.00840099
-0.00846371
-0.00852932
-0.00859543
-0.00866478
-0.00873537
-0.00880826
-0.00888438
-0.00896151
-0.00904337
-0.00912578
-0.00921194
-0.00930045
-0.00938945
-0.00948341
-0.00957586
-0.0096725
-0.00977068
-0.00986765
-0.0099714
-0.0100706
-0.010175
-0.01028
-0.0103824
-0.010489
-0.0105929
-0.0106912
-0.0107924
0.00312883
0.00337887
0.00346898
0.00343653
0.0032876
0.00298191
0.0025468
0.00208555
0.00167571
0.00131591
0.000944069
0.000543343
0.000117883
-0.000298988
-0.000688082
-0.00106868
-0.00140872
-0.00176559
-0.00221083
-0.0027348
-0.00338381
-0.00414849
-0.00490631
-0.00558874
-0.00625052
-0.00695307
-0.0076247
-0.00813103
-0.00833624
-0.00814533
-0.00777512
-0.00753991
-0.00738883
-0.00723402
-0.00703102
-0.0066432
-0.00634637
-0.00644466
-0.0066119
-0.00660908
-0.00659962
-0.00663302
-0.00668447
-0.00680015
-0.00693925
-0.00702527
-0.00710283
-0.00722314
-0.00730161
-0.00731834
-0.00737699
-0.00744298
-0.00746222
-0.00752661
-0.00762085
-0.00764715
-0.00768515
-0.00777409
-0.0077995
-0.00777808
-0.00783401
-0.00792474
-0.00795186
-0.00795644
-0.00800139
-0.00806057
-0.00809678
-0.00813011
-0.00817616
-0.00823084
-0.00828438
-0.0083405
-0.008401
-0.00846374
-0.00852935
-0.00859547
-0.00866484
-0.00873543
-0.00880831
-0.00888442
-0.00896153
-0.00904339
-0.00912578
-0.00921194
-0.00930045
-0.00938944
-0.00948341
-0.00957586
-0.0096725
-0.00977068
-0.00986765
-0.00997141
-0.0100706
-0.0101751
-0.01028
-0.0103824
-0.010489
-0.0105929
-0.0106915
-0.0107928
0.00284273
0.00314134
0.00333008
0.00338546
0.00327705
0.00297356
0.00252291
0.00204737
0.00163264
0.00127346
0.000903237
0.00050315
7.83104e-05
-0.000339057
-0.000725996
-0.00110563
-0.0014474
-0.00179831
-0.00223998
-0.0027644
-0.00340191
-0.0041416
-0.00487675
-0.00554191
-0.00617753
-0.00685071
-0.00750008
-0.00799316
-0.00821094
-0.00805836
-0.00772462
-0.00751122
-0.00736843
-0.00720972
-0.00700987
-0.00664011
-0.00635454
-0.00644737
-0.00660598
-0.00660023
-0.00659401
-0.00663245
-0.00668473
-0.0067976
-0.0069347
-0.00701969
-0.00709602
-0.00721511
-0.00729315
-0.00731068
-0.00737065
-0.00743776
-0.00745753
-0.00752183
-0.00761624
-0.00764302
-0.00768073
-0.0077694
-0.00779614
-0.00777629
-0.00783211
-0.00792215
-0.00794968
-0.00795513
-0.00800035
-0.0080595
-0.00809598
-0.00812972
-0.00817597
-0.00823068
-0.00828425
-0.0083404
-0.00840092
-0.00846367
-0.00852929
-0.00859544
-0.00866482
-0.00873544
-0.00880834
-0.00888447
-0.00896158
-0.00904344
-0.00912583
-0.00921197
-0.00930048
-0.00938946
-0.00948343
-0.00957587
-0.00967251
-0.00977069
-0.00986766
-0.00997142
-0.0100706
-0.0101751
-0.01028
-0.0103824
-0.010489
-0.0105929
-0.0106919
-0.0107933
0.00257352
0.00290293
0.0031602
0.00329178
0.00324314
0.00296323
0.00250779
0.0020159
0.00159035
0.00122909
0.00086027
0.000460613
3.5366e-05
-0.000380758
-0.00076369
-0.00114385
-0.001488
-0.00183024
-0.00226535
-0.00279088
-0.00341417
-0.00412485
-0.00484021
-0.00548896
-0.00609329
-0.00673478
-0.00736489
-0.00784808
-0.00807636
-0.00795949
-0.00766484
-0.00747719
-0.00734438
-0.00718261
-0.00698543
-0.00663452
-0.00636123
-0.00644758
-0.00659759
-0.00659071
-0.00658862
-0.00663244
-0.00668542
-0.00679455
-0.00692866
-0.0070126
-0.00708762
-0.00720485
-0.00728275
-0.0073019
-0.00736313
-0.00743115
-0.00745166
-0.00751557
-0.00760991
-0.00763755
-0.00767473
-0.00776256
-0.00779115
-0.00777366
-0.00782912
-0.007918
-0.00794624
-0.00795303
-0.00799854
-0.00805758
-0.00809448
-0.00812882
-0.00817535
-0.00823015
-0.00828382
-0.00834008
-0.00840066
-0.00846345
-0.00852912
-0.00859531
-0.00866475
-0.00873543
-0.00880838
-0.00888454
-0.00896167
-0.00904353
-0.00912591
-0.00921204
-0.00930054
-0.0093895
-0.00948345
-0.00957589
-0.00967252
-0.00977071
-0.00986768
-0.00997144
-0.0100707
-0.0101751
-0.01028
-0.0103825
-0.0104891
-0.010593
-0.0106924
-0.0107941
0.00231559
0.00266911
0.00297937
0.00317166
0.00318525
0.00294576
0.00249979
0.00199429
0.00155248
0.00118417
0.000816705
0.000416598
-1.05464e-05
-0.000425596
-0.000804277
-0.00118272
-0.00152998
-0.00186313
-0.00228709
-0.00281243
-0.00342274
-0.00410718
-0.00480232
-0.00543139
-0.00600406
-0.00661401
-0.00722705
-0.00770253
-0.00793828
-0.0078543
-0.00759891
-0.00743798
-0.00731779
-0.00715519
-0.00696005
-0.00662757
-0.00636702
-0.00644709
-0.00658957
-0.00658211
-0.00658299
-0.00663164
-0.00668565
-0.00679068
-0.00692171
-0.00700505
-0.0070786
-0.00719364
-0.00727142
-0.00729203
-0.00735424
-0.00742347
-0.00744506
-0.00750841
-0.00760259
-0.00763123
-0.00766774
-0.00775459
-0.00778539
-0.00777058
-0.00782549
-0.00791305
-0.00794221
-0.00795055
-0.00799631
-0.00805522
-0.00809263
-0.00812768
-0.00817456
-0.00822948
-0.00828328
-0.00833967
-0.00840032
-0.00846315
-0.00852887
-0.00859512
-0.00866463
-0.00873537
-0.00880838
-0.00888459
-0.00896176
-0.00904363
-0.00912601
-0.00921213
-0.00930061
-0.00938956
-0.00948349
-0.00957592
-0.00967254
-0.00977072
-0.0098677
-0.00997145
-0.0100707
-0.0101751
-0.0102801
-0.0103825
-0.0104892
-0.0105931
-0.0106929
-0.0107949
0.00206418
0.00243705
0.00279343
0.00303615
0.00310516
0.00291472
0.00249084
0.00197968
0.00151917
0.00113696
0.000769514
0.000369528
-5.98632e-05
-0.000476342
-0.000851107
-0.00122191
-0.0015717
-0.00189975
-0.00230835
-0.0028292
-0.00343251
-0.00409374
-0.00476078
-0.00536631
-0.00591145
-0.00649268
-0.00708915
-0.00755564
-0.00779685
-0.00774367
-0.00752547
-0.00739226
-0.00728909
-0.0071282
-0.00693436
-0.00661955
-0.00637186
-0.00644564
-0.00658056
-0.00657224
-0.00657563
-0.00662964
-0.00668543
-0.00678652
-0.00691464
-0.00699731
-0.00706887
-0.00718131
-0.00725884
-0.00728098
-0.00734446
-0.00741513
-0.00743778
-0.00750046
-0.00759452
-0.00762428
-0.00766018
-0.00774607
-0.00777919
-0.00776712
-0.00782142
-0.00790766
-0.00793785
-0.0079478
-0.00799381
-0.0080526
-0.00809059
-0.00812641
-0.00817365
-0.00822869
-0.00828263
-0.00833915
-0.00839988
-0.00846277
-0.00852854
-0.00859487
-0.00866446
-0.00873529
-0.00880836
-0.00888464
-0.00896184
-0.00904373
-0.00912613
-0.00921223
-0.00930069
-0.00938962
-0.00948354
-0.00957596
-0.00967257
-0.00977074
-0.00986773
-0.00997146
-0.0100708
-0.0101751
-0.0102802
-0.0103825
-0.0104894
-0.0105931
-0.0106934
-0.0107958
0.00181851
0.00220607
0.00260542
0.00289366
0.00300675
0.00286514
0.00247123
0.00196425
0.00148936
0.00108849
0.000716761
0.000318615
-0.000111897
-0.000531388
-0.000904422
-0.00126392
-0.00161279
-0.00193994
-0.00233124
-0.00284212
-0.00344197
-0.00407973
-0.00471061
-0.00529283
-0.00581946
-0.00637511
-0.00695043
-0.00740568
-0.00765266
-0.00762809
-0.00744406
-0.00733931
-0.00725672
-0.00710001
-0.0069073
-0.00660956
-0.00637479
-0.00644181
-0.00656907
-0.00656096
-0.00656796
-0.00662783
-0.00668548
-0.00678214
-0.00690663
-0.00698828
-0.00705777
-0.00716767
-0.00724532
-0.00726935
-0.00733406
-0.00740612
-0.00742996
-0.007492
-0.00758585
-0.00761682
-0.00765218
-0.00773705
-0.00777249
-0.00776329
-0.00781702
-0.0079019
-0.00793315
-0.0079448
-0.00799109
-0.00804977
-0.00808839
-0.00812501
-0.00817263
-0.00822779
-0.00828188
-0.00833856
-0.0083994
-0.00846235
-0.0085282
-0.0085946
-0.00866428
-0.0087352
-0.00880835
-0.00888468
-0.00896194
-0.00904384
-0.00912624
-0.00921233
-0.00930078
-0.00938969
-0.00948359
-0.009576
-0.0096726
-0.00977076
-0.00986776
-0.00997147
-0.0100708
-0.0101752
-0.0102803
-0.0103826
-0.0104895
-0.0105932
-0.0106939
-0.0107968
0.00157857
0.00197698
0.00241482
0.00274613
0.00289349
0.0027933
0.0024354
0.00194247
0.00146142
0.0010421
0.000659427
0.000261876
-0.000165388
-0.00058675
-0.000963305
-0.0013127
-0.00165339
-0.00197797
-0.00235459
-0.00285293
-0.00344675
-0.00406102
-0.00465558
-0.00521814
-0.00573229
-0.00625995
-0.00680803
-0.00725154
-0.00750513
-0.00750668
-0.00735448
-0.00727804
-0.00721826
-0.00706933
-0.00687947
-0.00659857
-0.00637624
-0.00643621
-0.00655652
-0.00654986
-0.00656019
-0.00662517
-0.00668436
-0.0067759
-0.00689671
-0.00697836
-0.00704631
-0.00715361
-0.00723152
-0.00725735
-0.00732296
-0.00739646
-0.00742168
-0.00748287
-0.0075764
-0.00760881
-0.00764373
-0.00772745
-0.00776527
-0.00775913
-0.00781228
-0.00789571
-0.00792809
-0.00794156
-0.00798817
-0.00804674
-0.008086
-0.00812344
-0.00817146
-0.00822679
-0.00828107
-0.00833793
-0.00839887
-0.00846189
-0.00852781
-0.0085943
-0.00866407
-0.00873507
-0.00880832
-0.00888471
-0.00896202
-0.00904394
-0.00912636
-0.00921242
-0.00930087
-0.00938976
-0.00948364
-0.00957604
-0.00967264
-0.00977081
-0.00986781
-0.00997149
-0.0100709
-0.0101752
-0.0102804
-0.0103826
-0.0104897
-0.0105933
-0.0106944
-0.0107978
0.00134474
0.00175035
0.00221886
0.00259143
0.00277106
0.00270194
0.00238093
0.00190965
0.00142994
0.000998664
0.00060091
0.000199331
-0.000220743
-0.000640258
-0.00102431
-0.00136933
-0.00169525
-0.00201139
-0.00237892
-0.00286487
-0.00344605
-0.00403736
-0.00460151
-0.00514666
-0.00564533
-0.00613988
-0.00665919
-0.00709405
-0.00735548
-0.00738128
-0.00725879
-0.00720885
-0.00717349
-0.00703711
-0.00685172
-0.00658636
-0.00637612
-0.0064293
-0.00654281
-0.00653706
-0.00654973
-0.00662045
-0.00668251
-0.00676909
-0.00688659
-0.00696896
-0.00703493
-0.00713871
-0.00721668
-0.00724434
-0.00731081
-0.00738592
-0.00741268
-0.00747301
-0.00756631
-0.00760035
-0.00763477
-0.00771722
-0.00775755
-0.00775463
-0.00780714
-0.00788907
-0.00792269
-0.00793808
-0.007985
-0.00804343
-0.00808337
-0.00812172
-0.00817019
-0.00822569
-0.00828017
-0.00833721
-0.00839827
-0.00846137
-0.00852737
-0.00859396
-0.00866384
-0.00873493
-0.00880827
-0.00888474
-0.0089621
-0.00904404
-0.00912648
-0.00921253
-0.00930097
-0.00938983
-0.00948371
-0.00957608
-0.00967268
-0.00977082
-0.00986786
-0.0099715
-0.010071
-0.0101752
-0.0102805
-0.0103827
-0.0104899
-0.0105935
-0.0106948
-0.0107988
0.00112
0.00152794
0.00201756
0.00242641
0.00264177
0.00259707
0.00230693
0.00186198
0.00139088
0.000955976
0.000544892
0.000134497
-0.000281271
-0.000694081
-0.00108329
-0.00143169
-0.00174331
-0.0020437
-0.00240152
-0.00287528
-0.00344115
-0.00401151
-0.00454975
-0.00507461
-0.00555082
-0.00601277
-0.00650908
-0.00693936
-0.00720802
-0.00725435
-0.00715656
-0.00713033
-0.00712158
-0.00700143
-0.00682136
-0.00657163
-0.00637495
-0.00642129
-0.00652696
-0.00652209
-0.00653776
-0.00661555
-0.00668169
-0.00676258
-0.00687526
-0.00695805
-0.00702207
-0.00712226
-0.00720071
-0.00723069
-0.007298
-0.00737473
-0.00740321
-0.00746263
-0.00755553
-0.00759119
-0.00762514
-0.00770635
-0.00774931
-0.00774967
-0.00780151
-0.00788193
-0.00791689
-0.00793429
-0.00798152
-0.00803984
-0.00808054
-0.00811984
-0.00816877
-0.00822445
-0.00827915
-0.00833641
-0.00839761
-0.00846081
-0.0085269
-0.00859359
-0.00866358
-0.00873477
-0.00880822
-0.00888476
-0.00896219
-0.00904414
-0.0091266
-0.00921263
-0.00930107
-0.0093899
-0.00948376
-0.00957611
-0.00967273
-0.00977084
-0.00986792
-0.00997151
-0.0100711
-0.0101752
-0.0102807
-0.0103827
-0.0104901
-0.0105936
-0.0106952
-0.0107999
0.000907261
0.00131252
0.00181248
0.0022483
0.00250106
0.00248391
0.00221683
0.00179823
0.00134124
0.000907959
0.00049016
7.05527e-05
-0.000348006
-0.000752842
-0.00113812
-0.00149396
-0.00179885
-0.00207742
-0.00241886
-0.00288074
-0.00343615
-0.00398932
-0.00449647
-0.00499325
-0.00544959
-0.00588863
-0.00636546
-0.00678755
-0.0070598
-0.00712246
-0.00704557
-0.00704182
-0.00706149
-0.00696077
-0.00678847
-0.00655622
-0.0063741
-0.00641273
-0.0065097
-0.00650634
-0.00652462
-0.00660874
-0.00667943
-0.00675436
-0.00686153
-0.0069457
-0.00700913
-0.00710578
-0.00718443
-0.00721646
-0.00728418
-0.00736249
-0.00739301
-0.00745144
-0.00754375
-0.00758121
-0.00761493
-0.00769486
-0.00774042
-0.0077442
-0.00779541
-0.00787431
-0.00791069
-0.00793018
-0.00797777
-0.008036
-0.0080775
-0.00811778
-0.00816719
-0.00822308
-0.00827803
-0.00833553
-0.00839688
-0.00846017
-0.00852637
-0.00859317
-0.00866328
-0.00873459
-0.00880815
-0.00888476
-0.00896226
-0.00904423
-0.00912672
-0.00921274
-0.00930118
-0.00938999
-0.00948384
-0.00957616
-0.00967278
-0.00977085
-0.00986799
-0.00997152
-0.0100712
-0.0101753
-0.0102808
-0.0103828
-0.0104902
-0.0105938
-0.0106957
-0.010801
0.000704126
0.00110684
0.00160774
0.0020593
0.00234459
0.00236205
0.00211602
0.00171816
0.00127754
0.000850726
0.00043286
8.1069e-06
-0.000416503
-0.000817855
-0.00119113
-0.00154997
-0.00185741
-0.00211635
-0.00243508
-0.00288105
-0.00343062
-0.00397264
-0.00443851
-0.00489888
-0.00534934
-0.00577591
-0.00622531
-0.00663057
-0.00690447
-0.00698604
-0.0069314
-0.00694636
-0.00699317
-0.00691625
-0.00675461
-0.00653929
-0.00637161
-0.00640279
-0.00649087
-0.00648846
-0.00650805
-0.00659814
-0.00667552
-0.00674643
-0.00684827
-0.00693352
-0.00699575
-0.00708804
-0.00716656
-0.00720073
-0.00726906
-0.00734945
-0.00738234
-0.00743949
-0.00753096
-0.00757048
-0.00760412
-0.00768267
-0.00773091
-0.00773828
-0.00778886
-0.00786618
-0.00790407
-0.00792579
-0.00797375
-0.00803187
-0.0080742
-0.00811551
-0.00816543
-0.00822156
-0.00827678
-0.00833453
-0.00839604
-0.00845946
-0.00852579
-0.00859272
-0.00866296
-0.00873438
-0.00880805
-0.00888475
-0.00896233
-0.00904433
-0.00912684
-0.00921284
-0.00930127
-0.00939004
-0.0094839
-0.00957618
-0.00967284
-0.00977087
-0.00986807
-0.00997154
-0.0100713
-0.0101753
-0.010281
-0.010383
-0.0104904
-0.010594
-0.0106961
-0.0108021
0.000506022
0.000911779
0.00140961
0.00186589
0.00217196
0.00222481
0.00200509
0.00162342
0.00119839
0.000783304
0.000369646
-5.62227e-05
-0.00048235
-0.000884696
-0.00124858
-0.00159977
-0.00191228
-0.00216317
-0.00245521
-0.00287655
-0.00342059
-0.00395767
-0.0043803
-0.00479752
-0.00525016
-0.00567143
-0.00608456
-0.00646536
-0.006744
-0.00685129
-0.00681969
-0.00684519
-0.00691462
-0.00686581
-0.00671743
-0.00651741
-0.0063651
-0.00639213
-0.00647185
-0.00646906
-0.00648931
-0.00658583
-0.00667126
-0.00673884
-0.0068343
-0.00691924
-0.00697979
-0.00706829
-0.00714791
-0.0071848
-0.00725338
-0.00733561
-0.00737082
-0.00742649
-0.0075171
-0.00755904
-0.00759279
-0.00766983
-0.00772077
-0.00773187
-0.00778178
-0.00785749
-0.00789701
-0.00792104
-0.00796937
-0.00802738
-0.00807059
-0.00811299
-0.00816346
-0.00821984
-0.00827538
-0.00833342
-0.00839514
-0.00845869
-0.00852515
-0.0085922
-0.00866258
-0.00873413
-0.00880794
-0.00888472
-0.00896238
-0.0090444
-0.00912695
-0.00921295
-0.00930139
-0.00939014
-0.00948398
-0.00957623
-0.00967291
-0.00977088
-0.00986815
-0.00997157
-0.0100714
-0.0101754
-0.0102811
-0.0103831
-0.0104906
-0.0105942
-0.0106965
-0.0108032
0.000307919
0.00072135
0.00121906
0.00167311
0.00198805
0.002069
0.00187891
0.00151563
0.00110514
0.000705302
0.000300983
-0.000125852
-0.00054737
-0.000948187
-0.00131314
-0.00164922
-0.00195945
-0.00221399
-0.00247985
-0.00286993
-0.00340319
-0.00393716
-0.00433082
-0.00470117
-0.00514163
-0.00556375
-0.00594787
-0.0063006
-0.00658369
-0.00671817
-0.00670759
-0.00673764
-0.00682453
-0.00680538
-0.00667503
-0.00649219
-0.00635693
-0.00638215
-0.00645376
-0.00644934
-0.00646882
-0.00657035
-0.00666363
-0.00672832
-0.00681837
-0.00690458
-0.00696378
-0.00704787
-0.00712873
-0.00716839
-0.00723627
-0.00732001
-0.00735835
-0.00741291
-0.00750245
-0.00754681
-0.00758077
-0.00765626
-0.00770993
-0.00772487
-0.00777412
-0.0078482
-0.00788942
-0.00791586
-0.00796457
-0.0080225
-0.00806668
-0.00811025
-0.00816131
-0.00821798
-0.00827386
-0.0083322
-0.00839411
-0.0084578
-0.00852442
-0.00859163
-0.00866217
-0.00873385
-0.00880779
-0.00888466
-0.00896243
-0.00904449
-0.00912707
-0.00921304
-0.00930149
-0.0093902
-0.00948406
-0.00957626
-0.00967297
-0.0097709
-0.00986823
-0.0099716
-0.0100715
-0.0101755
-0.0102812
-0.0103833
-0.0104907
-0.0105945
-0.0106969
-0.0108042
0.000111362
0.000529521
0.00103231
0.0014843
0.00180086
0.00189778
0.00173163
0.00139106
0.000999559
0.000617257
0.000227275
-0.000200719
-0.000618227
-0.00100866
-0.00137776
-0.00170365
-0.00200214
-0.00225951
-0.0025059
-0.00286514
-0.0033797
-0.00390929
-0.00429488
-0.00461845
-0.00501569
-0.00544212
-0.00582475
-0.00614827
-0.00642068
-0.00657786
-0.00659068
-0.00662752
-0.00672707
-0.00673523
-0.00662851
-0.00646634
-0.00634678
-0.00636961
-0.00643429
-0.00642892
-0.0064457
-0.00655013
-0.00665231
-0.00671643
-0.00680254
-0.00689123
-0.0069478
-0.00702463
-0.00710684
-0.00715121
-0.0072185
-0.0073033
-0.00734528
-0.00739874
-0.00748663
-0.00753348
-0.00756807
-0.00764201
-0.0076983
-0.00771716
-0.0077658
-0.00783825
-0.00788128
-0.00791027
-0.00795943
-0.00801733
-0.00806252
-0.00810727
-0.00815892
-0.00821588
-0.00827212
-0.00833079
-0.00839296
-0.00845683
-0.00852363
-0.008591
-0.00866169
-0.00873352
-0.00880762
-0.00888459
-0.00896245
-0.00904454
-0.00912717
-0.00921313
-0.00930159
-0.00939029
-0.00948414
-0.00957631
-0.00967305
-0.00977093
-0.00986832
-0.00997165
-0.0100716
-0.0101756
-0.0102814
-0.0103835
-0.0104909
-0.0105947
-0.0106973
-0.0108053
-7.65156e-05
0.000336582
0.000843495
0.00129728
0.00161326
0.0017159
0.0015651
0.00124588
0.000880196
0.000518815
0.000145882
-0.000276649
-0.000697216
-0.00107317
-0.00143466
-0.00176162
-0.00204673
-0.00229488
-0.00253057
-0.00286559
-0.00335508
-0.00387756
-0.00426464
-0.00454517
-0.00488024
-0.00530706
-0.00571462
-0.00601392
-0.00625287
-0.00642436
-0.00647007
-0.00651957
-0.00662794
-0.00665798
-0.00657456
-0.00643466
-0.00633163
-0.00635346
-0.00641338
-0.00640902
-0.00642233
-0.00652721
-0.00663847
-0.00670303
-0.00678428
-0.00687598
-0.00693139
-0.00700006
-0.00708332