/*--------------------------------*- C++ -*----------------------------------*\
| =========                 |                                                 |
| \\      /  F ield         | OpenFOAM: The Open Source CFD Toolbox           |
|  \\    /   O peration     | Version:  v1906                                 |
|   \\  /    A nd           | Web:      www.OpenFOAM.com                      |
|    \\/     M anipulation  |                                                 |
\*---------------------------------------------------------------------------*/
FoamFile
{
    version     2.0;
    format      ascii;
    class       surfaceScalarField;
    location    "0.4";
    object      phi;
}
// * * * * * * * * * * * * * * * * * * * * * * * * * * * * * * * * * * * * * //

dimensions      [0 3 -1 0 0 0 0];
oriented        oriented;


internalField   nonuniform List<scalar> 
9440
(
3.88421e-06
3.35282e-08
3.87179e-06
-8.6754e-08
3.87337e-06
-3.09655e-08
3.87364e-06
2.88681e-08
3.88316e-06
9.69401e-08
3.87983e-06
3.97664e-08
3.88139e-06
2.82148e-08
3.87369e-06
-4.9005e-08
3.87286e-06
-1.24461e-08
3.87e-06
-2.09351e-08
3.87298e-06
2.75324e-08
3.87415e-06
3.46423e-09
3.87644e-06
2.32626e-08
3.87877e-06
-1.01305e-08
3.87945e-06
-2.05595e-09
3.87998e-06
-2.62197e-08
3.87904e-06
-6.87939e-09
3.87207e-06
-2.09467e-08
3.8581e-06
1.36508e-08
2.77061e-08
3.83579e-06
4.18588e-06
3.35107e-08
4.18234e-06
-8.32154e-08
4.17721e-06
-2.58404e-08
4.18379e-06
2.22954e-08
4.18707e-06
9.36536e-08
4.18934e-06
3.75018e-08
4.18736e-06
3.01946e-08
4.18235e-06
-4.40016e-08
4.18028e-06
-1.03687e-08
4.1767e-06
-1.73569e-08
4.18139e-06
2.28452e-08
4.17843e-06
6.4187e-09
4.18346e-06
1.82299e-08
4.18037e-06
-7.03334e-09
4.18415e-06
-5.84394e-09
4.18053e-06
-2.25966e-08
4.1789e-06
-5.24521e-09
4.16678e-06
-8.82885e-09
4.16093e-06
1.95009e-08
3.48789e-08
4.15376e-06
4.52016e-06
3.34176e-08
4.51697e-06
-8.00252e-08
4.51321e-06
-2.20902e-08
4.51554e-06
1.99723e-08
4.52086e-06
8.83336e-08
4.52111e-06
3.72477e-08
4.52312e-06
2.81845e-08
4.51554e-06
-3.64162e-08
4.51772e-06
-1.2552e-08
4.51018e-06
-9.81755e-09
4.51888e-06
1.41499e-08
4.51186e-06
1.34376e-08
4.52075e-06
9.33998e-09
4.51392e-06
-2.03931e-10
4.51997e-06
-1.18931e-08
4.512e-06
-1.46298e-08
4.51308e-06
-6.32329e-09
4.50144e-06
2.80687e-09
4.49783e-06
2.3114e-08
4.07199e-08
4.49199e-06
4.8827e-06
3.16608e-08
4.87797e-06
-7.52897e-08
4.87704e-06
-2.11604e-08
4.87574e-06
2.1271e-08
4.88292e-06
8.1154e-08
4.88091e-06
3.92547e-08
4.88557e-06
2.3527e-08
4.87681e-06
-2.76537e-08
4.88054e-06
-1.62838e-08
4.87325e-06
-2.52735e-09
4.88016e-06
7.23991e-09
4.87678e-06
1.68201e-08
4.88153e-06
4.59046e-09
4.88039e-06
9.37085e-10
4.8799e-06
-1.14102e-08
4.87474e-06
-9.46369e-09
4.86818e-06
2.29327e-10
4.8619e-06
9.08606e-09
4.85833e-06
2.66899e-08
4.38675e-08
4.85518e-06
5.27304e-06
2.92675e-08
5.26719e-06
-6.94378e-08
5.26806e-06
-2.20351e-08
5.26525e-06
2.40829e-08
5.27365e-06
7.27595e-08
5.27023e-06
4.26739e-08
5.27579e-06
1.79673e-08
5.26706e-06
-1.89261e-08
5.27026e-06
-1.94874e-08
5.26535e-06
2.3811e-09
5.26887e-06
3.7239e-09
5.27049e-06
1.52004e-08
5.27049e-06
4.58778e-09
5.27161e-06
-1.86075e-10
5.26704e-06
-6.83127e-09
5.26229e-06
-4.71878e-09
5.25644e-06
6.08409e-09
5.25053e-06
1.49963e-08
5.24707e-06
3.01428e-08
4.57102e-08
5.24523e-06
5.69408e-06
2.66442e-08
5.68731e-06
-6.26624e-08
5.68936e-06
-2.40896e-08
5.68592e-06
2.75278e-08
5.69476e-06
6.39128e-08
5.69144e-06
4.59988e-08
5.69573e-06
1.36759e-08
5.68975e-06
-1.29427e-08
5.68928e-06
-1.90237e-08
5.68943e-06
2.2342e-09
5.68817e-06
4.97973e-09
5.69217e-06
1.12013e-08
5.69076e-06
6.00543e-09
5.69037e-06
1.96003e-10
5.68565e-06
-2.10689e-09
5.67994e-06
9.95221e-10
5.67493e-06
1.10922e-08
5.66987e-06
2.00565e-08
5.66669e-06
3.33213e-08
4.69223e-08
5.66548e-06
6.14864e-06
2.38743e-08
6.14109e-06
-5.51131e-08
6.14387e-06
-2.68726e-08
6.14038e-06
3.10249e-08
6.14881e-06
5.54782e-08
6.14695e-06
4.78596e-08
6.14863e-06
1.19938e-08
6.14654e-06
-1.08517e-08
6.14206e-06
-1.4544e-08
6.14474e-06
-4.40504e-10
6.14302e-06
6.69526e-09
6.145e-06
9.21885e-09
6.14461e-06
6.40166e-09
6.14177e-06
3.03033e-09
6.13703e-06
2.64054e-09
6.13175e-06
6.27106e-09
6.12707e-06
1.57709e-08
6.12272e-06
2.44031e-08
6.11992e-06
3.61297e-08
4.77608e-08
6.11908e-06
6.63938e-06
2.10597e-08
6.63141e-06
-4.71483e-08
6.6342e-06
-2.96596e-08
6.63168e-06
3.35448e-08
6.6384e-06
4.87562e-08
6.63946e-06
4.67965e-08
6.63771e-06
1.37514e-08
6.63825e-06
-1.1394e-08
6.63319e-06
-9.48563e-09
6.63421e-06
-1.45921e-09
6.63513e-06
5.77041e-09
6.63394e-06
1.04163e-08
6.63345e-06
6.88734e-09
6.63005e-06
6.4265e-09
6.62475e-06
7.94005e-09
6.61987e-06
1.11588e-08
6.61575e-06
1.98895e-08
6.61195e-06
2.82057e-08
6.60959e-06
3.84903e-08
4.84248e-08
6.60892e-06
7.16916e-06
1.8326e-08
7.16129e-06
-3.92738e-08
7.16309e-06
-3.14619e-08
7.16276e-06
3.38737e-08
7.16669e-06
4.48288e-08
7.17109e-06
4.23977e-08
7.16699e-06
1.78483e-08
7.16738e-06
-1.17836e-08
7.16488e-06
-6.98257e-09
7.16252e-06
8.98972e-10
7.16457e-06
3.71862e-09
7.16306e-06
1.19259e-08
7.16025e-06
9.69637e-09
7.15749e-06
9.19184e-09
7.15243e-06
1.30018e-08
7.14737e-06
1.62121e-08
7.14369e-06
2.35695e-08
7.14042e-06
3.14757e-08
7.13845e-06
4.04637e-08
4.89656e-08
7.13791e-06
7.74107e-06
1.58555e-08
7.73397e-06
-3.21734e-08
7.7337e-06
-3.1187e-08
7.73657e-06
3.10061e-08
7.7375e-06
4.38947e-08
7.74374e-06
3.61579e-08
7.74e-06
2.15851e-08
7.73794e-06
-9.72194e-09
7.73803e-06
-7.06714e-09
7.73447e-06
4.45998e-09
7.73444e-06
3.74782e-09
7.73427e-06
1.20929e-08
7.72999e-06
1.398e-08
7.7266e-06
1.25828e-08
7.72256e-06
1.70331e-08
7.7176e-06
2.11715e-08
7.714e-06
2.71756e-08
7.71124e-06
3.42327e-08
7.70965e-06
4.2052e-08
4.93801e-08
7.70924e-06
8.35848e-06
1.38343e-08
8.35294e-06
-2.66302e-08
8.34969e-06
-2.79371e-08
8.35579e-06
2.49042e-08
8.35504e-06
4.46426e-08
8.36053e-06
3.06742e-08
8.35965e-06
2.2463e-08
8.3546e-06
-4.67484e-09
8.35515e-06
-7.61414e-09
8.35292e-06
6.68714e-09
8.3498e-06
6.87069e-09
8.34953e-06
1.23587e-08
8.34603e-06
1.74838e-08
8.34164e-06
1.69698e-08
8.338e-06
2.06728e-08
8.33374e-06
2.54334e-08
8.33031e-06
3.06098e-08
8.32781e-06
3.67301e-08
8.32657e-06
4.32939e-08
4.95993e-08
8.32635e-06
9.02505e-06
1.24327e-08
9.02179e-06
-2.3373e-08
9.01516e-06
-2.13011e-08
9.02321e-06
1.68447e-08
9.02348e-06
4.43774e-08
9.02573e-06
2.84252e-08
9.02802e-06
2.01737e-08
9.02196e-06
1.38372e-09
9.02036e-06
-6.01076e-09
9.01992e-06
7.1278e-09
9.01581e-06
1.09786e-08
9.01369e-06
1.44757e-08
9.01091e-06
2.02657e-08
9.0066e-06
2.12781e-08
9.0029e-06
2.43766e-08
8.99919e-06
2.91449e-08
8.99608e-06
3.37165e-08
8.99384e-06
3.89651e-08
8.99282e-06
4.43144e-08
4.95806e-08
8.99284e-06
9.74481e-06
1.17204e-08
9.74412e-06
-2.26787e-08
9.7348e-06
-1.19813e-08
9.74234e-06
9.30176e-09
9.74597e-06
4.07534e-08
9.74458e-06
2.9817e-08
9.74786e-06
1.68878e-08
9.74366e-06
5.59051e-09
9.73907e-06
-1.4214e-09
9.73844e-06
7.75365e-09
9.73535e-06
1.4068e-08
9.73174e-06
1.80884e-08
9.72878e-06
2.32252e-08
9.72495e-06
2.51081e-08
9.7214e-06
2.79274e-08
9.71807e-06
3.24757e-08
9.71522e-06
3.65674e-08
9.71331e-06
4.08715e-08
9.71246e-06
4.51608e-08
4.93425e-08
9.7127e-06
1.05222e-05
1.16333e-08
1.05236e-05
-2.41419e-08
1.05134e-05
-1.72479e-09
1.05178e-05
4.9215e-09
1.05255e-05
3.30437e-08
1.05225e-05
3.27686e-08
1.05238e-05
1.5617e-08
1.05223e-05
7.11758e-09
1.05165e-05
4.36242e-09
1.05137e-05
1.05202e-08
1.05113e-05
1.64712e-08
1.05081e-05
2.13223e-08
1.05046e-05
2.67364e-08
1.05008e-05
2.88725e-08
1.04975e-05
3.11941e-08
1.04947e-05
3.53186e-08
1.0492e-05
3.92024e-08
1.04904e-05
4.25063e-08
1.04898e-05
4.57874e-08
4.89895e-08
1.04901e-05
1.13618e-05
1.19698e-08
1.13644e-05
-2.67506e-08
1.13555e-05
7.26043e-09
1.1355e-05
5.38159e-09
1.13656e-05
2.24743e-08
1.13639e-05
3.4431e-08
1.13618e-05
1.7757e-08
1.13615e-05
7.41295e-09
1.13567e-05
9.12617e-09
1.13518e-05
1.54484e-08
1.13487e-05
1.95602e-08
1.13461e-05
2.38995e-08
1.1343e-05
2.98308e-08
1.13391e-05
3.28134e-08
1.13358e-05
3.44473e-08
1.13335e-05
3.76302e-08
1.13313e-05
4.13936e-08
1.13299e-05
4.39518e-08
1.13294e-05
4.62292e-08
4.85342e-08
1.13299e-05
1.22689e-05
1.24348e-08
1.22713e-05
-2.91335e-08
1.22655e-05
1.3017e-08
1.22604e-05
1.04463e-08
1.22708e-05
1.21436e-08
1.22727e-05
3.25445e-08
1.22681e-05
2.23339e-08
1.22665e-05
9.00745e-09
1.22634e-05
1.22266e-08
1.22583e-05
2.05722e-08
1.22537e-05
2.41026e-08
1.22509e-05
2.67163e-08
1.22485e-05
3.22182e-08
1.22451e-05
3.62469e-08
1.22417e-05
3.78529e-08
1.22395e-05
3.9794e-08
1.22379e-05
4.303e-08
1.22366e-05
4.5174e-08
1.22364e-05
4.6512e-08
4.79825e-08
1.22369e-05
1.32486e-05
1.27597e-08
1.32497e-05
-3.02425e-08
1.32479e-05
1.48189e-08
1.32402e-05
1.81237e-08
1.32468e-05
5.56618e-09
1.32526e-05
2.67964e-08
1.32481e-05
2.67619e-08
1.32441e-05
1.307e-08
1.32413e-05
1.50004e-08
1.32373e-05
2.45528e-08
1.32324e-05
2.89817e-08
1.32286e-05
3.05537e-08
1.32262e-05
3.45756e-08
1.32236e-05
3.88578e-08
1.32205e-05
4.09697e-08
1.32183e-05
4.19992e-08
1.32171e-05
4.4259e-08
1.32162e-05
4.60378e-08
1.32161e-05
4.66727e-08
4.73487e-08
1.32167e-05
1.43067e-05
1.27797e-08
1.4306e-05
-2.95558e-08
1.43075e-05
1.33801e-08
1.43e-05
2.55753e-08
1.43014e-05
4.17567e-09
1.43085e-05
1.97346e-08
1.43066e-05
2.86665e-08
1.43012e-05
1.84462e-08
1.42971e-05
1.91262e-08
1.42935e-05
2.81011e-08
1.42897e-05
3.27962e-08
1.42857e-05
3.4506e-08
1.42827e-05
3.76127e-08
1.42804e-05
4.11227e-08
1.4278e-05
4.34406e-08
1.42759e-05
4.40806e-08
1.42749e-05
4.525e-08
1.42743e-05
4.66057e-08
1.42743e-05
4.66704e-08
4.66093e-08
1.42751e-05
1.54493e-05
1.24728e-08
1.54469e-05
-2.71974e-08
1.54501e-05
1.02356e-08
1.54451e-05
3.06072e-08
1.54423e-05
6.95849e-09
1.54472e-05
1.47968e-08
1.54481e-05
2.78273e-08
1.54437e-05
2.27862e-08
1.54383e-05
2.45097e-08
1.54338e-05
3.26305e-08
1.54305e-05
3.60689e-08
1.54276e-05
3.74277e-08
1.54247e-05
4.05512e-08
1.54221e-05
4.36467e-08
1.54202e-05
4.54185e-08
1.54185e-05
4.57925e-08
1.54177e-05
4.60311e-08
1.54174e-05
4.68591e-08
1.54176e-05
4.6509e-08
4.57738e-08
1.54184e-05
1.6683e-05
1.19446e-08
1.66796e-05
-2.38008e-08
1.66828e-05
7.04857e-09
1.66808e-05
3.2622e-08
1.66762e-05
1.14821e-08
1.66776e-05
1.34716e-08
1.66787e-05
2.6683e-08
1.66767e-05
2.4761e-08
1.66724e-05
2.88165e-08
1.66664e-05
3.86593e-08
1.66621e-05
4.03798e-08
1.66602e-05
3.93458e-08
1.66582e-05
4.24808e-08
1.66559e-05
4.59868e-08
1.66539e-05
4.74278e-08
1.66526e-05
4.70729e-08
1.66521e-05
4.65238e-08
1.66522e-05
4.67769e-08
1.66525e-05
4.61968e-08
4.48897e-08
1.66534e-05
1.8015e-05
1.13335e-08
1.80113e-05
-2.00555e-08
1.80135e-05
4.83994e-09
1.80136e-05
3.24554e-08
1.80098e-05
1.53621e-08
1.8008e-05
1.51845e-08
1.80074e-05
2.73514e-08
1.80067e-05
2.54902e-08
1.8005e-05
3.04341e-08
1.79997e-05
4.39744e-08
1.79934e-05
4.66513e-08
1.79906e-05
4.21581e-08
1.79901e-05
4.29869e-08
1.79888e-05
4.73531e-08
1.79869e-05
4.93351e-08
1.79857e-05
4.8239e-08
1.79855e-05
4.66872e-08
1.7986e-05
4.63274e-08
1.79866e-05
4.55927e-08
4.39989e-08
1.79875e-05
1.94533e-05
1.07045e-08
1.94496e-05
-1.63153e-08
1.94507e-05
3.68527e-09
1.94517e-05
3.1495e-08
1.94491e-05
1.79366e-08
1.94468e-05
1.75185e-08
1.94437e-05
3.04584e-08
1.94416e-05
2.76012e-08
1.94426e-05
2.94069e-08
1.94405e-05
4.61116e-08
1.94337e-05
5.34442e-08
1.94287e-05
4.71349e-08
1.94279e-05
4.37534e-08
1.94281e-05
4.71338e-08
1.94271e-05
5.04097e-08
1.94258e-05
4.94744e-08
1.94257e-05
4.67891e-08
1.94265e-05
4.5534e-08
1.94275e-05
4.46115e-08
4.29129e-08
1.94286e-05
2.10065e-05
1.00522e-08
2.10028e-05
-1.26449e-08
2.10033e-05
3.14377e-09
2.10041e-05
3.07239e-08
2.10022e-05
1.98242e-08
2.10008e-05
1.89295e-08
2.09968e-05
3.44481e-08
2.09922e-05
3.22097e-08
2.09929e-05
2.86752e-08
2.0995e-05
4.408e-08
2.09908e-05
5.76139e-08
2.09839e-05
5.39846e-08
2.09813e-05
4.63566e-08
2.09822e-05
4.62727e-08
2.09826e-05
5.00107e-08
2.09819e-05
5.02039e-08
2.09815e-05
4.71304e-08
2.09824e-05
4.4697e-08
2.09836e-05
4.33804e-08
4.15741e-08
2.09849e-05
2.26837e-05
9.25446e-09
2.26799e-05
-8.85904e-09
2.26803e-05
2.82889e-09
2.26807e-05
3.02859e-08
2.26784e-05
2.20751e-08
2.26781e-05
1.93086e-08
2.26756e-05
3.6956e-08
2.2669e-05
3.87148e-08
2.26669e-05
3.08271e-08
2.26711e-05
3.98792e-08
2.26713e-05
5.74037e-08
2.26658e-05
5.94437e-08
2.26609e-05
5.13301e-08
2.26606e-05
4.65715e-08
2.26622e-05
4.83618e-08
2.26627e-05
4.96788e-08
2.26625e-05
4.74157e-08
2.26632e-05
4.39699e-08
2.26646e-05
4.19702e-08
4.01016e-08
2.26661e-05
2.44949e-05
8.2618e-09
2.44909e-05
-4.79034e-09
2.44911e-05
2.5628e-09
2.44917e-05
2.96956e-08
2.44885e-05
2.53067e-08
2.44882e-05
1.95587e-08
2.4488e-05
3.72064e-08
2.44821e-05
4.45649e-08
2.44769e-05
3.6055e-08
2.44793e-05
3.75073e-08
2.44838e-05
5.29072e-08
2.4482e-05
6.12464e-08
2.44771e-05
5.62517e-08
2.44746e-05
4.90284e-08
2.44759e-05
4.70702e-08
2.44776e-05
4.79505e-08
2.44784e-05
4.6598e-08
2.44789e-05
4.34881e-08
2.44803e-05
4.05966e-08
3.85919e-08
2.44818e-05
2.64507e-05
7.10673e-09
2.64466e-05
-6.35059e-10
2.64463e-05
2.85847e-09
2.64477e-05
2.82841e-08
2.6444e-05
2.89928e-08
2.64423e-05
2.12722e-08
2.64439e-05
3.55514e-08
2.64409e-05
4.76368e-08
2.64344e-05
4.25368e-08
2.64335e-05
3.83496e-08
2.64385e-05
4.79343e-08
2.64411e-05
5.86556e-08
2.64388e-05
5.85696e-08
2.64356e-05
5.21909e-08
2.64352e-05
4.74669e-08
2.64372e-05
4.5941e-08
2.64389e-05
4.48861e-08
2.64402e-05
4.22024e-08
2.64414e-05
3.94218e-08
3.71771e-08
2.64428e-05
2.85624e-05
6.0035e-09
2.85587e-05
3.07311e-09
2.85574e-05
4.16218e-09
2.85596e-05
2.61413e-08
2.85565e-05
3.20955e-08
2.85531e-05
2.45911e-08
2.8555e-05
3.36463e-08
2.85548e-05
4.78446e-08
2.855e-05
4.73573e-08
2.85465e-05
4.18266e-08
2.85494e-05
4.50913e-08
2.85543e-05
5.36886e-08
2.85554e-05
5.74644e-08
2.85539e-05
5.371e-08
2.85528e-05
4.85932e-08
2.85535e-05
4.52916e-08
2.85557e-05
4.26752e-08
2.85575e-05
4.03787e-08
2.85592e-05
3.77047e-08
3.55513e-08
2.85608e-05
3.08426e-05
5.12127e-09
3.08397e-05
5.96867e-09
3.08373e-05
6.51263e-09
3.08396e-05
2.38765e-08
3.08381e-05
3.36198e-08
3.08338e-05
2.8798e-08
3.08344e-05
3.31149e-08
3.08365e-05
4.57577e-08
3.08343e-05
4.95151e-08
3.08306e-05
4.55288e-08
3.08311e-05
4.45794e-08
3.08352e-05
4.96233e-08
3.08392e-05
5.34397e-08
3.08399e-05
5.30264e-08
3.08396e-05
4.88361e-08
3.08399e-05
4.50728e-08
3.08408e-05
4.16973e-08
3.0843e-05
3.82626e-08
3.08449e-05
3.58085e-08
3.35358e-08
3.08469e-05
3.33046e-05
4.58556e-09
3.33027e-05
7.92961e-09
3.32999e-05
9.33523e-09
3.33013e-05
2.23918e-08
3.33015e-05
3.35012e-08
3.32979e-05
3.24067e-08
3.3297e-05
3.39448e-08
3.32994e-05
4.33933e-08
3.32998e-05
4.9054e-08
3.32978e-05
4.75596e-08
3.32969e-05
4.55413e-08
3.32996e-05
4.68263e-08
3.33037e-05
4.94272e-08
3.33069e-05
4.97402e-08
3.3308e-05
4.7791e-08
3.33088e-05
4.43051e-08
3.33094e-05
4.10256e-08
3.33103e-05
3.73935e-08
3.33122e-05
3.39604e-08
3.16618e-08
3.3314e-05
3.59634e-05
4.35575e-09
3.59621e-05
9.15789e-09
3.59595e-05
1.19839e-08
3.596e-05
2.19037e-08
3.59611e-05
3.2356e-08
3.59589e-05
3.46254e-08
3.59575e-05
3.53295e-08
3.59592e-05
4.16782e-08
3.59613e-05
4.6946e-08
3.59613e-05
4.7589e-08
3.5961e-05
4.58796e-08
3.59622e-05
4.55481e-08
3.59657e-05
4.59751e-08
3.59693e-05
4.61227e-08
3.59722e-05
4.48589e-08
3.59738e-05
4.27158e-08
3.5975e-05
3.99024e-08
3.59757e-05
3.66261e-08
3.59766e-05
3.31035e-08
3.00553e-08
3.59782e-05
3.88345e-05
4.30531e-09
3.88337e-05
9.9584e-09
3.88317e-05
1.39712e-08
3.88315e-05
2.21354e-08
3.88329e-05
3.09545e-08
3.88323e-05
3.52199e-08
3.88312e-05
3.6423e-08
3.88325e-05
4.03389e-08
3.88349e-05
4.45444e-08
3.88367e-05
4.5862e-08
3.88375e-05
4.504e-08
3.88389e-05
4.41842e-08
3.88412e-05
4.36408e-08
3.88447e-05
4.2673e-08
3.88479e-05
4.15971e-08
3.88508e-05
3.98435e-08
3.88527e-05
3.79655e-08
3.8854e-05
3.53525e-08
3.8855e-05
3.21424e-08
2.90845e-08
3.88559e-05
4.19351e-05
4.28596e-09
4.19345e-05
1.05284e-08
4.19332e-05
1.52084e-08
4.19329e-05
2.24389e-08
4.19342e-05
2.97346e-08
4.19348e-05
3.45434e-08
4.19348e-05
3.64971e-08
4.19359e-05
3.91666e-08
4.19385e-05
4.20172e-08
4.19411e-05
4.32512e-08
4.19431e-05
4.30085e-08
4.19452e-05
4.21065e-08
4.19475e-05
4.13431e-08
4.19503e-05
3.98934e-08
4.19535e-05
3.83363e-08
4.19566e-05
3.67448e-08
4.19596e-05
3.5016e-08
4.19616e-05
3.32737e-08
4.19631e-05
3.06983e-08
2.78471e-08
4.19643e-05
4.52832e-05
4.21311e-09
4.52829e-05
1.08811e-08
4.52823e-05
1.57678e-08
4.52824e-05
2.23781e-08
4.52835e-05
2.85848e-08
4.5285e-05
3.30558e-08
4.5286e-05
3.54889e-08
4.52877e-05
3.74986e-08
4.52902e-05
3.94647e-08
4.52933e-05
4.02e-08
4.52962e-05
4.00924e-08
4.5299e-05
3.93502e-08
4.53018e-05
3.8494e-08
4.53046e-05
3.71488e-08
4.53076e-05
3.53039e-08
4.53108e-05
3.35553e-08
4.53139e-05
3.18604e-08
4.53169e-05
3.02778e-08
4.5319e-05
2.86101e-08
2.62078e-08
4.53207e-05
4.88987e-05
4.07067e-09
4.88987e-05
1.09067e-08
4.88987e-05
1.57706e-08
4.88994e-05
2.17261e-08
4.89008e-05
2.71914e-08
4.89028e-05
3.10641e-08
4.89047e-05
3.35101e-08
4.89071e-05
3.50982e-08
4.891e-05
3.65676e-08
4.89133e-05
3.69077e-08
4.89168e-05
3.66633e-08
4.89201e-05
3.59771e-08
4.89235e-05
3.51442e-08
4.89267e-05
3.39296e-08
4.89297e-05
3.22687e-08
4.89329e-05
3.03399e-08
4.89361e-05
2.86632e-08
4.89393e-05
2.71101e-08
4.89422e-05
2.5712e-08
2.41243e-08
4.89443e-05
5.28029e-05
3.85187e-09
5.28033e-05
1.05132e-08
5.28038e-05
1.52627e-08
5.28051e-05
2.0417e-08
5.2807e-05
2.52907e-08
5.28095e-05
2.86069e-08
5.28122e-05
3.07659e-08
5.28153e-05
3.20209e-08
5.28188e-05
3.30608e-08
5.28224e-05
3.32832e-08
5.28263e-05
3.28436e-08
5.28301e-05
3.21597e-08
5.28339e-05
3.13738e-08
5.28375e-05
3.03256e-08
5.28408e-05
2.89095e-08
5.2844e-05
2.71856e-08
5.28472e-05
2.54319e-08
5.28504e-05
2.39183e-08
5.28535e-05
2.26467e-08
2.14003e-08
5.28562e-05
5.70188e-05
3.54457e-09
5.70197e-05
9.67672e-09
5.70207e-05
1.41903e-08
5.70226e-05
1.85103e-08
5.70252e-05
2.27123e-08
5.70283e-05
2.55779e-08
5.70316e-05
2.73759e-08
5.70353e-05
2.83558e-08
5.70394e-05
2.90153e-08
5.70435e-05
2.9156e-08
5.70476e-05
2.86849e-08
5.70519e-05
2.7899e-08
5.70561e-05
2.71544e-08
5.70601e-05
2.633e-08
5.70637e-05
2.52947e-08
5.7067e-05
2.39458e-08
5.707e-05
2.23846e-08
5.70731e-05
2.08593e-08
5.70762e-05
1.94955e-08
1.82675e-08
5.70794e-05
6.15714e-05
3.1167e-09
6.15726e-05
8.42332e-09
6.15743e-05
1.25065e-08
6.15768e-05
1.60399e-08
6.158e-05
1.94413e-08
6.15837e-05
2.18798e-08
6.15878e-05
2.3333e-08
6.15921e-05
2.40753e-08
6.15966e-05
2.45051e-08
6.16011e-05
2.46011e-08
6.16056e-05
2.42185e-08
6.161e-05
2.34658e-08
6.16146e-05
2.2592e-08
6.16192e-05
2.16732e-08
6.16238e-05
2.07249e-08
6.16279e-05
1.98531e-08
6.16314e-05
1.88524e-08
6.16346e-05
1.77377e-08
6.16374e-05
1.66339e-08
1.56392e-08
6.164e-05
6.64874e-05
2.54947e-09
6.6489e-05
6.76213e-09
6.64914e-05
1.01772e-08
6.64944e-05
1.29813e-08
6.64983e-05
1.55512e-08
6.65027e-05
1.75039e-08
6.65073e-05
1.86731e-08
6.65122e-05
1.92204e-08
6.65172e-05
1.94648e-08
6.65223e-05
1.95204e-08
6.65272e-05
1.93047e-08
6.65319e-05
1.88061e-08
6.65364e-05
1.81332e-08
6.65406e-05
1.74293e-08
6.65446e-05
1.67046e-08
6.65486e-05
1.59037e-08
6.65524e-05
1.49973e-08
6.65561e-05
1.40338e-08
6.65597e-05
1.30816e-08
1.22088e-08
6.65631e-05
7.17959e-05
1.85603e-09
7.17978e-05
4.81685e-09
7.18007e-05
7.28131e-09
7.18044e-05
9.31422e-09
7.18088e-05
1.1097e-08
7.18138e-05
1.24948e-08
7.18191e-05
1.33814e-08
7.18245e-05
1.38056e-08
7.183e-05
1.39521e-08
7.18356e-05
1.39613e-08
7.18411e-05
1.38251e-08
7.18464e-05
1.3514e-08
7.18515e-05
1.30591e-08
7.18563e-05
1.2548e-08
7.1861e-05
1.20344e-08
7.18654e-05
1.15099e-08
7.18695e-05
1.09404e-08
7.18732e-05
1.03174e-08
7.18766e-05
9.66445e-09
9.0267e-09
7.18798e-05
7.75284e-05
7.75308e-05
7.75344e-05
7.75387e-05
7.75438e-05
7.75494e-05
7.75553e-05
7.75613e-05
7.75674e-05
7.75734e-05
7.75793e-05
7.75851e-05
7.75905e-05
7.75957e-05
7.76007e-05
7.76055e-05
7.761e-05
7.76142e-05
7.76181e-05
7.76217e-05
3.76953e-06
6.62675e-08
3.67616e-06
9.33703e-08
3.57699e-06
9.91647e-08
3.47911e-06
9.78833e-08
3.38152e-06
9.75922e-08
3.28282e-06
9.86984e-08
3.18243e-06
1.00388e-07
3.07997e-06
1.02459e-07
2.97548e-06
1.04495e-07
2.8689e-06
1.06581e-07
2.76036e-06
1.08532e-07
2.64994e-06
1.10422e-07
2.53769e-06
1.12253e-07
2.42357e-06
1.14121e-07
2.30781e-06
1.15755e-07
2.19086e-06
1.1695e-07
2.07218e-06
1.18685e-07
1.95218e-06
1.19996e-07
1.83155e-06
1.20637e-07
1.70963e-06
1.21912e-07
1.58763e-06
1.22005e-07
1.46837e-06
1.19259e-07
1.35393e-06
1.14437e-07
1.24679e-06
1.07147e-07
1.14955e-06
9.72313e-08
1.06453e-06
8.50295e-08
9.94728e-07
6.97975e-08
9.42237e-07
5.24907e-08
9.06479e-07
3.5758e-08
8.83448e-07
2.30316e-08
8.66654e-07
1.67935e-08
8.52392e-07
1.42621e-08
8.40784e-07
1.16083e-08
8.3166e-07
9.12381e-09
8.25589e-07
6.07081e-09
8.21822e-07
3.76724e-09
8.16037e-07
5.78465e-09
8.07453e-07
8.58453e-09
7.9934e-07
8.11246e-09
7.92056e-07
7.28456e-09
7.84508e-07
7.54773e-09
7.7671e-07
7.79831e-09
7.68407e-07
8.30253e-09
7.5954e-07
8.86751e-09
7.51021e-07
8.51838e-09
7.43274e-07
7.74763e-09
7.3582e-07
7.45366e-09
7.28835e-07
6.98483e-09
7.23147e-07
5.68828e-09
7.18266e-07
4.8806e-09
7.13579e-07
4.68688e-09
7.09654e-07
3.92509e-09
7.06205e-07
3.4494e-09
7.02564e-07
3.64066e-09
6.99473e-07
3.09085e-09
6.97257e-07
2.21639e-09
6.95048e-07
2.20864e-09
6.93259e-07
1.78944e-09
6.92486e-07
7.73193e-10
6.91889e-07
5.96775e-10
6.90776e-07
1.11261e-09
6.90031e-07
7.45563e-10
6.90005e-07
2.59466e-11
6.90114e-07
-1.09026e-10
6.9002e-07
9.38009e-11
6.90059e-07
-3.88052e-11
6.9032e-07
-2.60827e-10
6.90586e-07
-2.65942e-10
6.9079e-07
-2.04753e-10
6.90952e-07
-1.61889e-10
6.91147e-07
-1.95168e-10
6.91301e-07
-1.53454e-10
6.91456e-07
-1.55311e-10
6.91584e-07
-1.27846e-10
6.9171e-07
-1.26317e-10
6.91829e-07
-1.1838e-10
6.91922e-07
-9.3444e-11
6.92018e-07
-9.52981e-11
6.92082e-07
-6.42111e-11
6.92141e-07
-5.88537e-11
6.92186e-07
-4.56511e-11
6.92207e-07
-2.07352e-11
6.92242e-07
-3.49976e-11
6.92242e-07
4.90026e-14
6.92259e-07
-1.74948e-11
6.92265e-07
-5.99286e-12
6.92254e-07
1.11178e-11
6.92277e-07
-2.27324e-11
6.92248e-07
2.90215e-11
6.92262e-07
-1.36111e-11
6.92248e-07
1.3663e-11
6.92217e-07
3.05186e-11
6.92222e-07
-4.46961e-12
6.9216e-07
6.19193e-11
6.92122e-07
3.77659e-11
6.92062e-07
6.04993e-11
6.91928e-07
1.33497e-10
6.91849e-07
7.93332e-11
6.91555e-07
2.94209e-10
1.0088e-09
4.15974e-06
6.02873e-08
4.16423e-06
8.8881e-08
4.15935e-06
1.04044e-07
4.14996e-06
1.07269e-07
4.13948e-06
1.08075e-07
4.12784e-06
1.10339e-07
4.11421e-06
1.14017e-07
4.09756e-06
1.19106e-07
4.078e-06
1.24058e-07
4.05499e-06
1.29586e-07
4.02877e-06
1.34756e-07
3.99912e-06
1.40072e-07
3.9658e-06
1.45569e-07
3.92907e-06
1.50851e-07
3.88822e-06
1.56612e-07
3.84395e-06
1.61212e-07
3.79565e-06
1.66987e-07
3.74303e-06
1.7262e-07
3.68669e-06
1.76975e-07
3.62605e-06
1.8255e-07
3.56113e-06
1.86929e-07
3.49252e-06
1.87865e-07
3.42216e-06
1.848e-07
3.35043e-06
1.78872e-07
3.27794e-06
1.69723e-07
3.20731e-06
1.55666e-07
3.13916e-06
1.37939e-07
3.07565e-06
1.16006e-07
3.01978e-06
9.16251e-08
2.96988e-06
7.29316e-08
2.9236e-06
6.30764e-08
2.88029e-06
5.757e-08
2.83794e-06
5.39593e-08
2.79702e-06
5.00443e-08
2.75999e-06
4.30968e-08
2.72425e-06
3.95145e-08
2.68646e-06
4.35728e-08
2.64815e-06
4.68905e-08
2.61132e-06
4.4943e-08
2.5768e-06
4.1808e-08
2.54471e-06
3.96342e-08
2.5133e-06
3.92054e-08
2.4816e-06
4.00029e-08
2.45045e-06
4.00239e-08
2.4202e-06
3.87699e-08
2.39089e-06
3.70526e-08
2.36303e-06
3.53153e-08
2.33687e-06
3.31407e-08
2.31267e-06
2.98923e-08
2.29055e-06
2.70038e-08
2.27029e-06
2.49401e-08
2.25168e-06
2.25333e-08
2.23465e-06
2.04837e-08
2.21931e-06
1.89827e-08
2.20568e-06
1.67237e-08
2.19338e-06
1.45162e-08
2.18241e-06
1.31768e-08
2.17349e-06
1.0708e-08
2.1664e-06
7.85836e-09
2.16011e-06
6.89369e-09
2.15439e-06
6.83445e-09
2.14998e-06
5.15024e-09
2.14685e-06
3.15708e-09
2.14445e-06
2.29485e-09
2.14258e-06
1.95602e-09
2.14148e-06
1.06065e-09
2.14101e-06
2.08423e-10
2.14089e-06
-1.38148e-10
2.14092e-06
-2.41829e-10
2.14109e-06
-3.28268e-10
2.14135e-06
-4.58384e-10
2.14166e-06
-4.60032e-10
2.14201e-06
-5.02334e-10
2.14239e-06
-5.10874e-10
2.1428e-06
-5.36732e-10
2.14323e-06
-5.5182e-10
2.14364e-06
-5.03673e-10
2.14404e-06
-4.94025e-10
2.14437e-06
-3.9245e-10
2.14466e-06
-3.45719e-10
2.14487e-06
-2.55233e-10
2.14503e-06
-1.80191e-10
2.14514e-06
-1.46338e-10
2.14521e-06
-6.94057e-11
2.14526e-06
-6.47568e-11
2.14529e-06
-3.74566e-11
2.14529e-06
8.10067e-12
2.14532e-06
-5.0705e-11
2.14529e-06
5.5671e-11
2.14531e-06
-3.75822e-11
2.14528e-06
5.02055e-11
2.14528e-06
3.08572e-11
2.14524e-06
3.82023e-11
2.1452e-06
1.00135e-10
2.14513e-06
1.07842e-10
2.14503e-06
1.54791e-10
2.1449e-06
2.69446e-10
2.14469e-06
2.82153e-10
2.14451e-06
4.80324e-10
2.11731e-09
4.4938e-06
5.84796e-08
4.50008e-06
8.25958e-08
4.50398e-06
1.00146e-07
4.50399e-06
1.07255e-07
4.50286e-06
1.0921e-07
4.5024e-06
1.10795e-07
4.50281e-06
1.13612e-07
4.50303e-06
1.1888e-07
4.50282e-06
1.24276e-07
4.50167e-06
1.30729e-07
4.49961e-06
1.3682e-07
4.49669e-06
1.42994e-07
4.49248e-06
1.49772e-07
4.48731e-06
1.56022e-07
4.48053e-06
1.63399e-07
4.47248e-06
1.6926e-07
4.46305e-06
1.76412e-07
4.45166e-06
1.8401e-07
4.43889e-06
1.89744e-07
4.42452e-06
1.96927e-07
4.4081e-06
2.0334e-07
4.38938e-06
2.0659e-07
4.36907e-06
2.05112e-07
4.34701e-06
2.00932e-07
4.32265e-06
1.94077e-07
4.29711e-06
1.81213e-07
4.27044e-06
1.64606e-07
4.24284e-06
1.43611e-07
4.21618e-06
1.18281e-07
4.19106e-06
9.80486e-08
4.16656e-06
8.75782e-08
4.14281e-06
8.13186e-08
4.1191e-06
7.76701e-08
4.0948e-06
7.43493e-08
4.07176e-06
6.61323e-08
4.04928e-06
6.19972e-08
4.02509e-06
6.77638e-08
4.00027e-06
7.17056e-08
3.9758e-06
6.94171e-08
3.95128e-06
6.63218e-08
3.9269e-06
6.40199e-08
3.902e-06
6.41005e-08
3.87593e-06
6.60762e-08
3.84923e-06
6.67206e-08
3.82266e-06
6.53483e-08
3.79644e-06
6.32675e-08
3.77082e-06
6.09387e-08
3.74657e-06
5.73889e-08
3.72397e-06
5.24955e-08
3.70212e-06
4.88461e-08
3.68079e-06
4.62782e-08
3.66016e-06
4.31592e-08
3.63988e-06
4.07634e-08
3.6203e-06
3.85612e-08
3.60214e-06
3.48811e-08
3.58494e-06
3.17199e-08
3.56852e-06
2.95988e-08
3.55386e-06
2.53648e-08
3.54098e-06
2.07409e-08
3.52892e-06
1.89564e-08
3.51767e-06
1.80765e-08
3.50797e-06
1.48562e-08
3.49968e-06
1.14473e-08
3.49234e-06
9.62793e-09
3.48593e-06
8.37443e-09
3.48064e-06
6.34485e-09
3.47634e-06
4.51032e-09
3.47283e-06
3.3749e-09
3.46996e-06
2.63033e-09
3.46773e-06
1.90039e-09
3.46604e-06
1.22971e-09
3.46484e-06
7.39652e-10
3.46404e-06
2.9808e-10
3.46362e-06
-8.82521e-11
3.46353e-06
-4.49307e-10
3.46376e-06
-7.81607e-10
3.46425e-06
-9.94572e-10
3.46494e-06
-1.18547e-09
3.46572e-06
-1.17412e-09
3.46652e-06
-1.14837e-09
3.46724e-06
-9.70024e-10
3.46786e-06
-7.96116e-10
3.46832e-06
-6.08696e-10
3.46866e-06
-4.15072e-10
3.46889e-06
-2.93984e-10
3.46904e-06
-1.84532e-10
3.46913e-06
-7.99809e-11
3.46918e-06
-1.04274e-10
3.46919e-06
4.32314e-11
3.46922e-06
-6.5034e-11
3.46919e-06
7.79285e-11
3.4692e-06
2.36591e-11
3.46917e-06
6.88998e-11
3.46911e-06
1.55669e-10
3.4691e-06
1.21239e-10
3.46896e-06
2.91727e-10
3.46892e-06
3.16413e-10
3.46867e-06
5.3238e-10
3.46861e-06
5.39681e-10
2.84125e-09
4.85579e-06
5.78698e-08
4.86013e-06
7.82559e-08
4.86528e-06
9.49947e-08
4.86724e-06
1.05298e-07
4.86704e-06
1.0941e-07
4.86703e-06
1.10803e-07
4.86792e-06
1.12724e-07
4.86952e-06
1.17282e-07
4.87139e-06
1.22408e-07
4.87309e-06
1.2902e-07
4.87448e-06
1.35439e-07
4.87582e-06
1.4165e-07
4.87684e-06
1.48751e-07
4.87778e-06
1.55082e-07
4.87838e-06
1.62796e-07
4.87871e-06
1.68937e-07
4.87907e-06
1.76045e-07
4.87894e-06
1.84148e-07
4.87879e-06
1.89889e-07
4.87889e-06
1.96827e-07
4.87873e-06
2.03507e-07
4.87802e-06
2.07298e-07
4.87689e-06
2.06235e-07
4.87515e-06
2.0268e-07
4.87211e-06
1.97117e-07
4.86788e-06
1.85436e-07
4.86242e-06
1.70063e-07
4.85517e-06
1.50863e-07
4.8466e-06
1.26851e-07
4.83786e-06
1.06788e-07
4.82923e-06
9.62107e-08
4.82082e-06
8.97301e-08
4.81248e-06
8.60071e-08
4.80351e-06
8.33189e-08
4.79448e-06
7.51655e-08
4.78581e-06
7.06621e-08
4.77683e-06
7.67503e-08
4.76781e-06
8.07215e-08
4.75898e-06
7.8247e-08
4.74981e-06
7.54958e-08
4.74036e-06
7.34628e-08
4.73042e-06
7.40429e-08
4.71934e-06
7.716e-08
4.7072e-06
7.88588e-08
4.69448e-06
7.80714e-08
4.68144e-06
7.6307e-08
4.66828e-06
7.40974e-08
4.65557e-06
7.0095e-08
4.64372e-06
6.43489e-08
4.63242e-06
6.01417e-08
4.6216e-06
5.70966e-08
4.61131e-06
5.34522e-08
4.60092e-06
5.11596e-08
4.59015e-06
4.93219e-08
4.57943e-06
4.56097e-08
4.5687e-06
4.24497e-08
4.558e-06
4.02977e-08
4.54799e-06
3.53713e-08
4.53879e-06
2.9944e-08
4.52988e-06
2.78685e-08
4.52128e-06
2.66766e-08
4.51345e-06
2.26785e-08
4.50639e-06
1.85143e-08
4.49986e-06
1.61547e-08
4.49387e-06
1.43609e-08
4.48858e-06
1.16394e-08
4.48389e-06
9.20265e-09
4.47973e-06
7.53e-09
4.47605e-06
6.3121e-09
4.47288e-06
5.07043e-09
4.47017e-06
3.94211e-09
4.46791e-06
3.00124e-09
4.46607e-06
2.13853e-09
4.46464e-06
1.33684e-09
4.46362e-06
5.67313e-10
4.46298e-06
-1.42419e-10
4.46271e-06
-7.21978e-10
4.46276e-06
-1.23664e-09
4.4631e-06
-1.51101e-09
4.46367e-06
-1.71651e-09
4.46437e-06
-1.67525e-09
4.46514e-06
-1.5676e-09
4.46588e-06
-1.34222e-09
4.46652e-06
-1.05313e-09
4.46703e-06
-8.11243e-10
4.4674e-06
-5.46198e-10
4.46766e-06
-3.45933e-10
4.46781e-06
-2.51533e-10
4.4679e-06
-5.217e-11
4.46795e-06
-1.10477e-10
4.46796e-06
6.26847e-11
4.46796e-06
3.25783e-11
4.46796e-06
6.00797e-11
4.46789e-06
2.32116e-10
4.46791e-06
9.49873e-11
4.46778e-06
4.29617e-10
4.46779e-06
3.06283e-10
4.46755e-06
7.65168e-10
4.46757e-06
5.26084e-10
3.18137e-09
5.24569e-06
5.74144e-08
5.24907e-06
7.48748e-08
5.25371e-06
9.03494e-08
5.25699e-06
1.02021e-07
5.25807e-06
1.08331e-07
5.2582e-06
1.10674e-07
5.25873e-06
1.12192e-07
5.26012e-06
1.15887e-07
5.26209e-06
1.20437e-07
5.26412e-06
1.26991e-07
5.2659e-06
1.33658e-07
5.26775e-06
1.39804e-07
5.26947e-06
1.47028e-07
5.27127e-06
1.53283e-07
5.27305e-06
1.61015e-07
5.27468e-06
1.67305e-07
5.27672e-06
1.74009e-07
5.27867e-06
1.82198e-07
5.28081e-06
1.87751e-07
5.28369e-06
1.93948e-07
5.28691e-06
2.00287e-07
5.29013e-06
2.0408e-07
5.29328e-06
2.03081e-07
5.29645e-06
1.99506e-07
5.29898e-06
1.94595e-07
5.30053e-06
1.83878e-07
5.30124e-06
1.69357e-07
5.30044e-06
1.51665e-07
5.29801e-06
1.29284e-07
5.29499e-06