/*--------------------------------*- C++ -*----------------------------------*\
| =========                 |                                                 |
| \\      /  F ield         | OpenFOAM: The Open Source CFD Toolbox           |
|  \\    /   O peration     | Version:  v1906                                 |
|   \\  /    A nd           | Web:      www.OpenFOAM.com                      |
|    \\/     M anipulation  |                                                 |
\*---------------------------------------------------------------------------*/
FoamFile
{
    version     2.0;
    format      ascii;
    class       volVectorField;
    location    "0.4";
    object      U;
}
// * * * * * * * * * * * * * * * * * * * * * * * * * * * * * * * * * * * * * //

dimensions      [0 1 -1 0 0 0 0];


internalField   nonuniform List<vector> 
4800
(
(0.960314 0.000401514 0)
(1.04019 -0.00105294 0)
(0.960856 -0.000358663 0)
(1.03446 0.000382725 0)
(0.967815 0.00147152 0)
(1.03289 0.000572845 0)
(0.970977 0.000480188 0)
(1.02888 -0.000987572 0)
(0.972225 -0.000275287 0)
(1.02348 -0.000485665 0)
(0.974439 0.000671241 0)
(1.02119 0.000115217 0)
(0.978127 0.000675793 0)
(1.01869 -0.00025652 0)
(0.980444 -5.92099e-05 0)
(1.01578 -0.000888132 0)
(0.981967 -0.000282313 0)
(1.01248 -0.00103275 0)
(0.982225 6.07208e-05 0)
(1.00872 0.000452218 0)
(0.982499 0.000293518 0)
(1.01599 -0.000887807 0)
(0.983832 -0.000359081 0)
(1.01069 0.000343961 0)
(0.990106 0.00131381 0)
(1.00948 0.000616887 0)
(0.992881 0.000497086 0)
(1.00659 -0.000864467 0)
(0.993368 -0.000190693 0)
(1.00256 -0.000462234 0)
(0.994327 0.000698329 0)
(1.0016 5.03095e-05 0)
(0.99638 0.000673085 0)
(1.00062 -0.000366549 0)
(0.997151 -4.94416e-05 0)
(0.999428 -0.000965455 0)
(0.99717 -0.000160838 0)
(0.997915 -0.000794569 0)
(0.996203 0.000887827 0)
(0.995931 0.00171726 0)
(0.995991 0.000362446 0)
(1.00359 -0.000907431 0)
(0.995669 -0.000265137 0)
(1.00077 0.000246016 0)
(0.998402 0.00129078 0)
(1.00144 0.000553671 0)
(0.999367 0.000487978 0)
(1.00091 -0.000705633 0)
(0.998663 -0.000228031 0)
(0.998796 -0.000280518 0)
(0.998258 0.000380426 0)
(0.999094 0.000291044 0)
(0.999026 0.000324089 0)
(0.999198 -2.81781e-05 0)
(0.99892 -0.000336054 0)
(0.998792 -0.000571137 0)
(0.998451 -0.000330152 0)
(0.998061 -4.29319e-05 0)
(0.997333 0.00101545 0)
(0.996738 0.00208281 0)
(0.999643 0.000321727 0)
(1.00083 -0.000862075 0)
(0.998571 -0.000248897 0)
(0.99928 0.000257699 0)
(0.999874 0.00121665 0)
(1.00027 0.000576673 0)
(1.00024 0.000454192 0)
(1.00041 -0.000600884 0)
(0.999514 -0.000278208 0)
(0.99889 -0.000125847 0)
(0.99894 0.000224711 0)
(0.999275 0.000435569 0)
(0.99954 0.000155169 0)
(0.999499 4.13947e-05 0)
(0.999321 -0.000410947 0)
(0.999121 -0.000442698 0)
(0.998875 -0.000117883 0)
(0.998521 0.000268812 0)
(0.997936 0.00115174 0)
(0.997421 0.0021947 0)
(1.00022 0.000306266 0)
(1.00045 -0.000781898 0)
(0.999031 -0.000256112 0)
(0.999284 0.0002937 0)
(1.00012 0.00107353 0)
(1.00019 0.000632759 0)
(1.00028 0.000335908 0)
(1.00039 -0.000389773 0)
(0.999681 -0.000382168 0)
(0.999075 3.06374e-05 0)
(0.999137 8.90341e-05 0)
(0.999428 0.00042225 0)
(0.999709 0.000114925 0)
(0.999683 2.29577e-06 0)
(0.999493 -0.000293613 0)
(0.99931 -0.000284487 0)
(0.999094 0.000138552 0)
(0.998762 0.00053612 0)
(0.998275 0.00135122 0)
(0.99782 0.00231622 0)
(1.00027 0.000284846 0)
(1.00038 -0.000735662 0)
(0.999103 -0.000273127 0)
(0.999359 0.000341171 0)
(1.00018 0.000960818 0)
(1.00018 0.000693578 0)
(1.00024 0.000250548 0)
(1.00035 -0.000263692 0)
(0.999723 -0.000407941 0)
(0.999151 7.31835e-05 0)
(0.999191 0.000105694 0)
(0.999464 0.000320227 0)
(0.99973 0.000152621 0)
(0.999714 -1.14357e-05 0)
(0.999542 -0.000172973 0)
(0.999404 -6.50604e-05 0)
(0.999219 0.000332746 0)
(0.998923 0.000765637 0)
(0.998504 0.00150309 0)
(0.998095 0.0023706 0)
(1.00026 0.000251244 0)
(1.00036 -0.000638815 0)
(0.999137 -0.000301077 0)
(0.999407 0.000382667 0)
(1.00021 0.000824096 0)
(1.00016 0.000733834 0)
(1.0002 0.00019519 0)
(1.00031 -0.000194505 0)
(0.999734 -0.000330641 0)
(0.999187 8.93817e-06 0)
(0.999208 0.000157021 0)
(0.999467 0.00023711 0)
(0.999712 0.000172431 0)
(0.999703 3.52491e-05 0)
(0.999566 6.99453e-06 0)
(0.999471 0.000138328 0)
(0.999322 0.000525164 0)
(0.999067 0.000967423 0)
(0.998707 0.00163791 0)
(0.998334 0.00242008 0)
(1.00025 0.000226703 0)
(1.00034 -0.00055875 0)
(0.999172 -0.000344845 0)
(0.999451 0.000438475 0)
(1.00022 0.00071744 0)
(1.00013 0.000745677 0)
(1.00014 0.000208594 0)
(1.00027 -0.000214272 0)
(0.999738 -0.000220854 0)
(0.999216 -3.67248e-05 0)
(0.999223 0.000157266 0)
(0.999461 0.00025882 0)
(0.999696 0.000170842 0)
(0.999692 0.000145048 0)
(0.999576 0.00018345 0)
(0.999528 0.000309213 0)
(0.999423 0.000680899 0)
(0.999213 0.00112891 0)
(0.998909 0.00174917 0)
(0.99857 0.00245328 0)
(1.00023 0.000194951 0)
(1.00031 -0.00046373 0)
(0.999207 -0.000368426 0)
(0.999489 0.000451891 0)
(1.00023 0.000644069 0)
(1.00009 0.000686468 0)
(1.00008 0.000264093 0)
(1.00024 -0.000228515 0)
(0.999741 -0.000140965 0)
(0.999228 -1.57703e-05 0)
(0.999242 8.83106e-05 0)
(0.999457 0.000296684 0)
(0.999681 0.000219794 0)
(0.999699 0.000225564 0)
(0.999597 0.000350023 0)
(0.999585 0.000507983 0)
(0.999528 0.000844825 0)
(0.999362 0.00128055 0)
(0.999103 0.00184785 0)
(0.998794 0.00247322 0)
(1.00022 0.000170621 0)
(1.00028 -0.000381463 0)
(0.999239 -0.00038702 0)
(0.999529 0.000433557 0)
(1.00023 0.000625338 0)
(1.00007 0.000595272 0)
(1.00002 0.000346291 0)
(1.0002 -0.000209095 0)
(0.999747 -0.000140214 0)
(0.999231 7.13141e-05 0)
(0.999258 6.88831e-05 0)
(0.999467 0.0002939 0)
(0.999668 0.000336648 0)
(0.999708 0.00032673 0)
(0.99963 0.000486799 0)
(0.999643 0.000685944 0)
(0.999626 0.000998758 0)
(0.999506 0.00139797 0)
(0.999291 0.00192396 0)
(0.99901 0.00249312 0)
(1.0002 0.000145235 0)
(1.00025 -0.000308731 0)
(0.999267 -0.000361182 0)
(0.999569 0.000363542 0)
(1.00022 0.000635328 0)
(1.00004 0.000489393 0)
(0.999953 0.00038026 0)
(1.00015 -0.000128592 0)
(0.999759 -0.000155444 0)
(0.999235 0.000135522 0)
(0.999259 0.000127613 0)
(0.999485 0.000290461 0)
(0.999667 0.000432578 0)
(0.999716 0.000451112 0)
(0.99967 0.000610964 0)
(0.99971 0.000843191 0)
(0.999725 0.00115144 0)
(0.999648 0.00152558 0)
(0.999477 0.00200279 0)
(0.999215 0.00252602 0)
(1.00018 0.000128863 0)
(1.00021 -0.000260571 0)
(0.999286 -0.000301599 0)
(0.99961 0.000256711 0)
(1.00021 0.000651616 0)
(1 0.000437818 0)
(0.999896 0.000358988 0)
(1.00009 -2.02055e-05 0)
(0.999761 -0.000152055 0)
(0.999248 0.000137818 0)
(0.999259 0.000219017 0)
(0.999503 0.000341421 0)
(0.999677 0.000514752 0)
(0.999729 0.000571166 0)
(0.999714 0.000731244 0)
(0.999781 0.000971769 0)
(0.999825 0.0012657 0)
(0.999784 0.00162942 0)
(0.999653 0.00204914 0)
(0.999406 0.00252933 0)
(1.00016 0.000117599 0)
(1.00018 -0.000241465 0)
(0.999297 -0.000198981 0)
(0.999649 0.000153755 0)
(1.00021 0.000616888 0)
(0.99996 0.000447556 0)
(0.999844 0.000294329 0)
(1.00003 7.74726e-05 0)
(0.999753 -8.08729e-05 0)
(0.999269 0.00014154 0)
(0.999267 0.00028889 0)
(0.99952 0.000422558 0)
(0.99969 0.000608228 0)
(0.999744 0.000702175 0)
(0.999759 0.000859052 0)
(0.999853 0.0010982 0)
(0.999927 0.00137098 0)
(0.999919 0.00171404 0)
(0.999823 0.00209364 0)
(0.999597 0.00252575 0)
(1.00014 0.000115088 0)
(1.00015 -0.000251794 0)
(0.999301 -7.87195e-05 0)
(0.999679 6.81279e-05 0)
(1.00021 0.000523123 0)
(0.999914 0.000493819 0)
(0.999792 0.000253631 0)
(0.999982 0.000120412 0)
(0.999733 3.69739e-05 0)
(0.999285 0.000188926 0)
(0.999285 0.000340025 0)
(0.999546 0.000493303 0)
(0.999716 0.000700461 0)
(0.999768 0.000833631 0)
(0.999807 0.000980401 0)
(0.999925 0.00121209 0)
(1.00003 0.00147326 0)
(1.00005 0.00177419 0)
(0.999984 0.00211875 0)
(0.99978 0.00250066 0)
(1.00013 0.000118002 0)
(1.00014 -0.000283269 0)
(0.999305 4.59504e-05 0)
(0.999696 5.18737e-05 0)
(1.00023 0.000378256 0)
(0.999871 0.000541274 0)
(0.999731 0.000271633 0)
(0.999945 0.000122384 0)
(0.999724 0.000142485 0)
(0.999294 0.000293598 0)
(0.999301 0.000419781 0)
(0.999578 0.000561535 0)
(0.99975 0.000775185 0)
(0.999796 0.000944643 0)
(0.999854 0.00109752 0)
(1 0.00131621 0)
(1.00012 0.00157369 0)
(1.00017 0.00183221 0)
(1.00014 0.00213153 0)
(0.99996 0.00246692 0)
(1.00011 0.000124697 0)
(1.00013 -0.000316063 0)
(0.999316 0.000140237 0)
(0.999694 9.92315e-05 0)
(1.00025 0.000221191 0)
(0.999848 0.000530264 0)
(0.999666 0.000345966 0)
(0.99991 0.000136987 0)
(0.999728 0.000204538 0)
(0.999308 0.000393642 0)
(0.999315 0.000525296 0)
(0.99961 0.000645943 0)
(0.999797 0.000843686 0)
(0.999841 0.0010334 0)
(0.999909 0.0012061 0)
(1.00008 0.00141156 0)
(1.00022 0.00166331 0)
(1.00028 0.00189451 0)
(1.00028 0.00214574 0)
(1.00012 0.00243683 0)
(1.00009 0.000127792 0)
(1.00012 -0.000334967 0)
(0.999338 0.000176855 0)
(0.999677 0.000193153 0)
(1.00026 0.000103341 0)
(0.999849 0.000446037 0)
(0.999606 0.000429111 0)
(0.999871 0.000200212 0)
(0.999744 0.000254972 0)
(0.999336 0.000474981 0)
(0.999333 0.000631585 0)
(0.99964 0.00074994 0)
(0.999844 0.000929907 0)
(0.999893 0.00111605 0)
(0.99997 0.00128581 0)
(1.00017 0.00147967 0)
(1.00032 0.00172839 0)
(1.00039 0.0019507 0)
(1.00041 0.00215809 0)
(1.00028 0.00240566 0)
(1.00007 0.00013167 0)
(1.00012 -0.000336853 0)
(0.999375 0.000166087 0)
(0.999651 0.00030167 0)
(1.00026 5.24906e-05 0)
(0.999872 0.000338535 0)
(0.999568 0.000472029 0)
(0.999829 0.000303068 0)
(0.999761 0.00033917 0)
(0.999376 0.000547052 0)
(0.999363 0.000709957 0)
(0.999676 0.00084603 0)
(0.999897 0.00102736 0)
(0.999949 0.00121165 0)
(1.00003 0.00136715 0)
(1.00026 0.00153414 0)
(1.00043 0.00177076 0)
(1.00049 0.00200019 0)
(1.00052 0.0021754 0)
(1.00041 0.00237432 0)
(1.00005 0.000127975 0)
(1.00012 -0.0003134 0)
(0.999427 0.000134312 0)
(0.999628 0.000381741 0)
(1.00024 7.51337e-05 0)
(0.999902 0.000242988 0)
(0.999556 0.000460905 0)
(0.9998 0.000385639 0)
(0.999778 0.000453024 0)
(0.999414 0.000652174 0)
(0.9994 0.00078032 0)
(0.999725 0.000908664 0)
(0.999958 0.00111454 0)
(1.00001 0.00131141 0)
(1.00009 0.00145905 0)
(1.00034 0.00158421 0)
(1.00054 0.00177746 0)
(1.0006 0.00201334 0)
(1.00063 0.00218398 0)
(1.00052 0.00234006 0)
(1.00004 0.000123614 0)
(1.00012 -0.000276767 0)
(0.999486 9.37118e-05 0)
(0.999611 0.000415109 0)
(1.0002 0.000137984 0)
(0.999928 0.000205816 0)
(0.999565 0.000434517 0)
(0.999791 0.000426724 0)
(0.999809 0.000552108 0)
(0.99945 0.00079673 0)
(0.999424 0.000883877 0)
(0.99978 0.00094557 0)
(1.00004 0.00115267 0)
(1.00008 0.00139435 0)
(1.00014 0.00155759 0)
(1.00041 0.0016544 0)
(1.00066 0.00178443 0)
(1.00072 0.00199863 0)
(1.00073 0.00217501 0)
(1.00062 0.00230855 0)
(1.00002 0.000116739 0)
(1.00012 -0.000236449 0)
(0.999548 6.55541e-05 0)
(0.999608 0.000414547 0)
(1.00016 0.000197928 0)
(0.999941 0.000226913 0)
(0.999576 0.00043924 0)
(0.999801 0.000437052 0)
(0.999868 0.000591724 0)
(0.999498 0.000933187 0)
(0.999426 0.00104613 0)
(0.999811 0.00101029 0)
(1.00014 0.00114965 0)
(1.00018 0.00142066 0)
(1.0002 0.00163503 0)
(1.00045 0.00172936 0)
(1.00074 0.001809 0)
(1.00085 0.00197459 0)
(1.00084 0.00214132 0)
(1.00071 0.00227106 0)
(1.00001 0.000110307 0)
(1.00011 -0.0001958 0)
(0.999609 4.93056e-05 0)
(0.999611 0.000406268 0)
(1.00013 0.000235737 0)
(0.999957 0.000260998 0)
(0.999584 0.000491458 0)
(0.999803 0.000463225 0)
(0.999952 0.000567834 0)
(0.999589 0.000994658 0)
(0.999421 0.00122484 0)
(0.999798 0.00114753 0)
(1.00022 0.00116141 0)
(1.00031 0.00139635 0)
(1.00029 0.00166337 0)
(1.00049 0.00179115 0)
(1.0008 0.00184279 0)
(1.00095 0.00195698 0)
(1.00094 0.00209645 0)
(1.00081 0.00221508 0)
(1 0.000104756 0)
(1.0001 -0.000158773 0)
(0.999672 4.23702e-05 0)
(0.999623 0.000401319 0)
(1.00009 0.000258523 0)
(0.99998 0.000286413 0)
(0.999595 0.000563414 0)
(0.999787 0.000538326 0)
(1.00004 0.000544307 0)
(0.999734 0.000955043 0)
(0.999455 0.00135431 0)
(0.999745 0.00134206 0)
(1.00024 0.00124428 0)
(1.00045 0.00136287 0)
(1.00042 0.00162993 0)
(1.00054 0.00180801 0)
(1.00084 0.0018613 0)
(1.00102 0.00193669 0)
(1.00103 0.00205057 0)
(1.0009 0.00214674 0)
(0.999994 9.78863e-05 0)
(1.00009 -0.000119178 0)
(0.999734 3.66986e-05 0)
(0.999637 0.000400049 0)
(1.00006 0.000289155 0)
(1.00002 0.000283031 0)
(0.999624 0.000617901 0)
(0.999753 0.000670194 0)
(1.00009 0.000566341 0)
(0.999917 0.000864087 0)
(0.999567 0.00135321 0)
(0.999699 0.00151004 0)
(1.0002 0.00139778 0)
(1.00052 0.00138455 0)
(1.00056 0.0015727 0)
(1.00062 0.00177337 0)
(1.00087 0.00185381 0)
(1.00108 0.00190035 0)
(1.00111 0.00199359 0)
(1.00098 0.00207374 0)
(0.99999 8.95249e-05 0)
(1.00008 -7.50152e-05 0)
(0.999798 2.86947e-05 0)
(0.999665 0.000396297 0)
(1.00002 0.000333956 0)
(1.00006 0.000287132 0)
(0.999695 0.000620159 0)
(0.999719 0.000789488 0)
(1.00009 0.000671411 0)
(1.00008 0.000792485 0)
(0.999754 0.00125491 0)
(0.999727 0.00156663 0)
(1.00012 0.00155695 0)
(1.00053 0.00147701 0)
(1.00067 0.00155123 0)
(1.00072 0.001713 0)
(1.0009 0.00181625 0)
(1.00112 0.00185167 0)
(1.00117 0.00191664 0)
(1.00105 0.00199958 0)
(0.999988 7.70333e-05 0)
(1.00007 -2.69512e-05 0)
(0.999858 2.7542e-05 0)
(0.999702 0.00038032 0)
(0.999985 0.000391155 0)
(1.00009 0.000300737 0)
(0.999785 0.000594147 0)
(0.999729 0.000857392 0)
(1.00005 0.000811461 0)
(1.00019 0.000807576 0)
(0.999969 0.00113659 0)
(0.999842 0.00150674 0)
(1.00009 0.0016337 0)
(1.00048 0.00158558 0)
(1.00071 0.00158234 0)
(1.00081 0.00166979 0)
(1.00095 0.00175797 0)
(1.00114 0.0017952 0)
(1.00123 0.00183123 0)
(1.00113 0.00191047 0)
(0.999988 6.55913e-05 0)
(1.00005 1.65764e-05 0)
(0.99991 3.66263e-05 0)
(0.999758 0.000347279 0)
(0.999952 0.000446102 0)
(1.00011 0.000349286 0)
(0.9999 0.000556974 0)
(0.999778 0.000870981 0)
(1.00002 0.000920415 0)
(1.00023 0.000887678 0)
(1.00015 0.00106307 0)
(1.00002 0.00138923 0)
(1.00014 0.0016024 0)
(1.00044 0.00163992 0)
(1.0007 0.00162831 0)
(1.00084 0.00166317 0)
(1.00098 0.00170576 0)
(1.00115 0.00173194 0)
(1.00127 0.00174962 0)
(1.00121 0.00180097 0)
(0.999989 5.41695e-05 0)
(1.00004 5.33361e-05 0)
(0.999949 6.24028e-05 0)
(0.999817 0.000314354 0)
(0.999944 0.000469607 0)
(1.0001 0.000423877 0)
(0.999993 0.000543834 0)
(0.999873 0.000830137 0)
(1.00002 0.000979059 0)
(1.00024 0.000971749 0)
(1.00027 0.00106226 0)
(1.00019 0.00128637 0)
(1.00024 0.00150449 0)
(1.00046 0.00161104 0)
(1.00069 0.00163396 0)
(1.00084 0.00166044 0)
(1.00098 0.00167502 0)
(1.00114 0.00167402 0)
(1.00127 0.00167733 0)
(1.00128 0.00169283 0)
(0.999991 4.70433e-05 0)
(1.00003 8.00258e-05 0)
(0.999976 9.57285e-05 0)
(0.999879 0.000290753 0)
(0.99995 0.000473873 0)
(1.0001 0.000480956 0)
(1.00007 0.000563188 0)
(0.999975 0.000793804 0)
(1.00007 0.000968712 0)
(1.00025 0.00102988 0)
(1.00034 0.00108221 0)
(1.00032 0.00123192 0)
(1.00037 0.00139861 0)
(1.00052 0.00152418 0)
(1.0007 0.0015854 0)
(1.00084 0.00162376 0)
(1.00095 0.00165012 0)
(1.0011 0.00163807 0)
(1.00124 0.00162305 0)
(1.00131 0.00161465 0)
(0.999993 4.35144e-05 0)
(1.00002 9.48424e-05 0)
(0.999993 0.000132203 0)
(0.999931 0.000280189 0)
(0.999977 0.000457743 0)
(1.00009 0.000527126 0)
(1.00012 0.000587106 0)
(1.00007 0.000767366 0)
(1.00013 0.000934779 0)
(1.00028 0.00102912 0)
(1.00038 0.00109609 0)
(1.00041 0.0011996 0)
(1.00046 0.00132428 0)
(1.00059 0.00142521 0)
(1.00074 0.00149878 0)
(1.00086 0.00154836 0)
(1.00094 0.0015945 0)
(1.00104 0.00160404 0)
(1.00118 0.00158138 0)
(1.00128 0.00156667 0)
(0.999994 4.30348e-05 0)
(1.00001 0.000103823 0)
(1.00001 0.000158492 0)
(0.999973 0.000284302 0)
(1.00001 0.000438792 0)
(1.0001 0.000539175 0)
(1.00015 0.0006121 0)
(1.00015 0.000747374 0)
(1.0002 0.000898416 0)
(1.00032 0.000998087 0)
(1.00043 0.00107506 0)
(1.00048 0.0011652 0)
(1.00053 0.00126181 0)
(1.00065 0.00134083 0)
(1.00079 0.00140112 0)
(1.0009 0.00145192 0)
(1.00096 0.00150441 0)
(1.00102 0.00154042 0)
(1.00112 0.00153712 0)
(1.00122 0.00152383 0)
(0.999996 4.28864e-05 0)
(1.00001 0.000111108 0)
(1.00002 0.000175489 0)
(1.00001 0.000289816 0)
(1.00005 0.000423475 0)
(1.00013 0.000532815 0)
(1.00019 0.000617395 0)
(1.00021 0.000732296 0)
(1.00026 0.000855366 0)
(1.00037 0.000954217 0)
(1.00048 0.00102832 0)
(1.00054 0.0011102 0)
(1.00059 0.00119734 0)
(1.00069 0.00126253 0)
(1.00081 0.00131242 0)
(1.00093 0.00135148 0)
(1.001 0.00139572 0)
(1.00103 0.00144249 0)
(1.00108 0.00146592 0)
(1.00115 0.00146206 0)
(0.999997 4.2352e-05 0)
(1.00001 0.000116608 0)
(1.00003 0.000184238 0)
(1.00004 0.000291919 0)
(1.00008 0.000409764 0)
(1.00015 0.000515969 0)
(1.00022 0.000603554 0)
(1.00026 0.000704875 0)
(1.00032 0.000812854 0)
(1.00042 0.000897684 0)
(1.00052 0.000970108 0)
(1.00059 0.0010374 0)
(1.00064 0.00111719 0)
(1.00072 0.00117918 0)
(1.00083 0.00122269 0)
(1.00095 0.00125411 0)
(1.00103 0.00128341 0)
(1.00106 0.00132402 0)
(1.00108 0.00135997 0)
(1.00111 0.00137243 0)
(0.999998 4.11881e-05 0)
(1.00001 0.000118992 0)
(1.00004 0.000187259 0)
(1.00006 0.000286129 0)
(1.00011 0.000393938 0)
(1.00018 0.000491082 0)
(1.00025 0.000576641 0)
(1.00031 0.000663973 0)
(1.00037 0.000759693 0)
(1.00046 0.000835211 0)
(1.00055 0.000898486 0)
(1.00063 0.000956959 0)
(1.00069 0.001022 0)
(1.00075 0.00108276 0)
(1.00084 0.00112485 0)
(1.00095 0.00115239 0)
(1.00104 0.00117439 0)
(1.00109 0.00119897 0)
(1.0011 0.00123249 0)
(1.00111 0.00125656 0)
(0.999999 3.93484e-05 0)
(1.00002 0.00011699 0)
(1.00005 0.000184623 0)
(1.00008 0.000272559 0)
(1.00013 0.000371016 0)
(1.00021 0.000458917 0)
(1.00028 0.000537756 0)
(1.00035 0.000612786 0)
(1.00041 0.000693531 0)
(1.00049 0.000762526 0)
(1.00058 0.000817826 0)
(1.00067 0.000867138 0)
(1.00073 0.000919886 0)
(1.00078 0.000972474 0)
(1.00085 0.00101501 0)
(1.00094 0.00104211 0)
(1.00103 0.00106144 0)
(1.00109 0.00107663 0)
(1.00112 0.00110043 0)
(1.00112 0.00112534 0)
(1 3.67597e-05 0)
(1.00002 0.00011014 0)
(1.00006 0.000175553 0)
(1.0001 0.000251756 0)
(1.00015 0.000338854 0)
(1.00023 0.000417236 0)
(1.00031 0.000487218 0)
(1.00038 0.000551056 0)
(1.00045 0.000617308 0)
(1.00052 0.000677516 0)
(1.00061 0.000726987 0)
(1.00069 0.000768222 0)
(1.00076 0.000810316 0)
(1.00081 0.000853234 0)
(1.00087 0.000892134 0)
(1.00094 0.000920699 0)
(1.00102 0.000940016 0)
(1.00108 0.000954528 0)
(1.00112 0.000970399 0)
(1.00114 0.000990722 0)
(1 3.31729e-05 0)
(1.00002 9.84795e-05 0)
(1.00006 0.000159019 0)
(1.00011 0.000223439 0)
(1.00017 0.00029684 0)
(1.00025 0.000364735 0)
(1.00033 0.000424493 0)
(1.00041 0.000477532 0)
(1.00048 0.000530352 0)
(1.00055 0.000580623 0)
(1.00063 0.000623355 0)
(1.00071 0.000658804 0)
(1.00078 0.00069139 0)
(1.00084 0.000724915 0)
(1.00089 0.000756919 0)
(1.00095 0.000783521 0)
(1.00101 0.00080342 0)
(1.00107 0.000818592 0)
(1.00112 0.000832358 0)
(1.00115 0.000849658 0)
(1 2.85587e-05 0)
(1.00002 8.3065e-05 0)
(1.00007 0.000135287 0)
(1.00012 0.000187612 0)
(1.00019 0.000245053 0)
(1.00026 0.000299953 0)
(1.00034 0.000347735 0)
(1.00043 0.000389069 0)
(1.0005 0.000428768 0)
(1.00058 0.000467579 0)
(1.00065 0.000502361 0)
(1.00072 0.000531578 0)
(1.00079 0.000556823 0)
(1.00085 0.000581614 0)
(1.0009 0.000605993 0)
(1.00095 0.000627891 0)
(1.00101 0.000644971 0)
(1.00107 0.000657804 0)
(1.00112 0.000668367 0)
(1.00116 0.00068021 0)
(1 2.31555e-05 0)
(1.00002 6.72223e-05 0)
(1.00007 0.000111283 0)
(1.00013 0.000155068 0)
(1.00019 0.000201461 0)
(1.00027 0.000246879 0)
(1.00035 0.000287511 0)
(1.00044 0.000322726 0)
(1.00052 0.000355083 0)
(1.00059 0.000386799 0)
(1.00066 0.000416749 0)
(1.00073 0.000443243 0)
(1.0008 0.000466244 0)
(1.00086 0.000487696 0)
(1.00091 0.000508699 0)
(1.00096 0.000528514 0)
(1.00101 0.000545437 0)
(1.00106 0.000558808 0)
(1.00111 0.000569295 0)
(1.00115 0.000578621 0)
(1 1.0169e-05 0)
(1.00003 2.9888e-05 0)
(1.00007 5.02871e-05 0)
(1.00013 7.12548e-05 0)
(1.00021 9.30949e-05 0)
(1.00029 0.000114835 0)
(1.00037 0.000134893 0)
(1.00046 0.000152558 0)
(1.00054 0.000168533 0)
(1.00061 0.000183939 0)
(1.00069 0.000198757 0)
(1.00075 0.000212354 0)
(1.00082 0.000224418 0)
(1.00088 0.000235439 0)
(1.00093 0.000246024 0)
(1.00098 0.000256257 0)
(1.00103 0.000265702 0)
(1.00107 0.000273883 0)
(1.00112 0.00028075 0)
(1.00117 0.000286663 0)
(0.982836 0.00204804 0)
(0.958994 0.00329062 0)
(0.934901 0.00369952 0)
(0.910166 0.00371711 0)
(0.88498 0.00366185 0)
(0.859493 0.00363722 0)
(0.83386 0.00362992 0)
(0.807722 0.00361608 0)
(0.781087 0.00358593 0)
(0.753782 0.00353762 0)
(0.726035 0.00348081 0)
(0.697812 0.00341865 0)
(0.669118 0.00334603 0)
(0.640035 0.00329795 0)
(0.610279 0.00322343 0)
(0.5804 0.00313428 0)
(0.549945 0.00309603 0)
(0.518959 0.00302729 0)
(0.488017 0.00292901 0)
(0.456653 0.00290257 0)
(0.424963 0.00277632 0)
(0.39381 0.00248332 0)
(0.363549 0.00226455 0)
(0.334558 0.00204327 0)
(0.307944 0.0016733 0)
(0.284272 0.00112954 0)
(0.264251 0.000541464 0)
(0.248697 3.40504e-05 0)
(0.237797 -0.000318579 0)
(0.230607 -0.000465002 0)
(0.225567 -0.000437135 0)
(0.221611 -0.000411286 0)
(0.218312 -0.000440446 0)
(0.215648 -0.000444243 0)
(0.213777 -0.000421734 0)
(0.212483 -0.000386512 0)
(0.211176 -0.000279147 0)
(0.209379 -0.000190696 0)
(0.207261 -0.000163645 0)
(0.205234 -0.000127973 0)
(0.203346 -9.68807e-05 0)
(0.201363 -8.34305e-05 0)
(0.199265 -6.03583e-05 0)
(0.197047 -4.14956e-05 0)
(0.19482 -4.09542e-05 0)
(0.192696 -3.67524e-05 0)
(0.190733 -2.62686e-05 0)
(0.188875 -2.6178e-05 0)
(0.187256 -2.97219e-05 0)
(0.185868 -2.2839e-05 0)
(0.184659 -1.44959e-05 0)
(0.183548 -1.13083e-05 0)
(0.18259 -3.18126e-06 0)
(0.181668 5.88749e-06 0)
(0.180832 1.33677e-06 0)
(0.180121 -1.65629e-06 0)
(0.179554 7.32726e-06 0)
(0.179053 8.45507e-06 0)
(0.178738 1.15904e-06 0)
(0.178535 2.6833e-06 0)
(0.178326 1.01284e-05 0)
(0.178096 8.36229e-06 0)
(0.178001 4.35372e-06 0)
(0.178002 4.86515e-06 0)
(0.178011 8.027e-06 0)
(0.178009 7.07906e-06 0)
(0.17805 4.38394e-06 0)
(0.178116 3.51064e-06 0)
(0.17818 2.69857e-06 0)
(0.178225 1.69444e-06 0)
(0.178276 3.48625e-07 0)
(0.178314 1.11979e-07 0)
(0.178363 -4.49596e-07 0)
(0.178389 -5.53989e-07 0)
(0.178434 -8.38013e-07 0)
(0.178452 -9.5465e-07 0)
(0.178494 -9.26132e-07 0)
(0.178503 -9.02525e-07 0)
(0.17854 -6.67435e-07 0)
(0.178538 -4.70792e-07 0)
(0.178571 -3.59785e-07 0)
(0.178557 -7.67992e-08 0)
(0.17859 -1.82983e-07 0)
(0.178564 8.39326e-08 0)
(0.178601 -9.31723e-08 0)
(0.178565 -5.86774e-09 0)
(0.178606 5.69253e-08 0)
(0.178564 -1.1845e-07 0)
(0.178609 1.35478e-07 0)
(0.178559 -6.0709e-08 0)
(0.178611 3.59542e-08 0)
(0.178547 2.07806e-07 0)
(0.178611 -1.48759e-07 0)
(0.178524 4.4121e-07 0)
(0.178605 4.29308e-09 0)
(0.178483 4.29719e-07 0)
(0.178585 5.6203e-07 0)
(0.178405 1.74518e-07 0)
(0.17856 2.20037e-06 0)
(0.178169 4.89538e-06 0)
(0.995492 0.00399363 0)
(0.994801 0.00577136 0)
(0.993764 0.00640082 0)
(0.992118 0.00636759 0)
(0.990078 0.00620734 0)
(0.987476 0.00613655 0)
(0.984606 0.00615984 0)
(0.980987 0.00624617 0)
(0.976692 0.00633525 0)
(0.971594 0.00643351 0)
(0.96566 0.0065117 0)
(0.959131 0.00658452 0)
(0.951576 0.00664828 0)
(0.943379 0.00670051 0)
(0.934063 0.00675309 0)
(0.923926 0.00676382 0)
(0.912906 0.00679849 0)
(0.900607 0.00681725 0)
(0.887728 0.00680867 0)
(0.873619 0.00682692 0)
(0.858575 0.00681676 0)
(0.842659 0.00669492 0)
(0.825875 0.00647694 0)
(0.808759 0.00614572 0)
(0.791164 0.00565975 0)
(0.773964 0.0050606 0)
(0.757602 0.00436749 0)
(0.741908 0.00354228 0)
(0.728061 0.00269813 0)
(0.715733 0.00201033 0)
(0.703875 0.00159044 0)
(0.693241 0.00139245 0)
(0.683215 0.0012491 0)
(0.67294 0.00106982 0)
(0.66377 0.000844662 0)
(0.655143 0.000680105 0)
(0.645978 0.000702997 0)
(0.637011 0.000761945 0)
(0.628217 0.00068525 0)
(0.619437 0.000587179 0)
(0.611578 0.000555432 0)
(0.604142 0.000549976 0)
(0.596521 0.000547517 0)
(0.588985 0.000542879 0)
(0.581785 0.000511391 0)
(0.574574 0.000459738 0)
(0.567697 0.000421872 0)
(0.561296 0.000384944 0)
(0.555324 0.000318252 0)
(0.549644 0.000261376 0)
(0.544679 0.000232263 0)
(0.540066 0.000193327 0)
(0.535741 0.000158949 0)
(0.531838 0.00014953 0)
(0.528548 0.000126797 0)
(0.525364 9.34034e-05 0)
(0.522536 8.01631e-05 0)
(0.520206 5.84212e-05 0)
(0.518377 2.65782e-05 0)
(0.516692 1.97236e-05 0)
(0.515275 2.97452e-05 0)
(0.514108 1.62848e-05 0)
(0.513223 -4.19506e-06 0)
(0.512526 -1.00698e-05 0)
(0.512032 -6.01943e-06 0)
(0.5117 -9.7215e-06 0)
(0.511522 -1.52502e-05 0)
(0.511448 -1.40725e-05 0)
(0.511454 -1.0699e-05 0)
(0.511472 -7.90176e-06 0)
(0.511545 -7.31661e-06 0)
(0.511587 -5.41058e-06 0)
(0.511699 -4.70384e-06 0)
(0.511747 -3.45794e-06 0)
(0.511888 -2.89768e-06 0)
(0.51194 -2.33578e-06 0)
(0.512096 -1.53855e-06 0)
(0.512137 -1.53964e-06 0)
(0.512283 -8.96473e-07 0)
(0.512295 -9.73618e-07 0)
(0.512422 -7.33075e-07 0)
(0.51239 -4.16613e-07 0)
(0.512508 -6.75967e-07 0)
(0.51243 -8.68612e-08 0)
(0.512555 -3.76972e-07 0)
(0.512441 -1.32607e-07 0)
(0.512577 1.90746e-07 0)
(0.512442 -3.94173e-07 0)
(0.512585 5.49887e-07 0)
(0.512436 -2.59427e-07 0)
(0.512593 3.15212e-07 0)
(0.512412 4.31295e-07 0)
(0.512612 8.16369e-08 0)
(0.51236 8.72301e-07 0)
(0.512629 8.42667e-07 0)
(0.512293 8.82436e-07 0)
(0.512607 2.26677e-06 0)
(0.512201 1.47511e-06 0)
(0.512544 3.92307e-06 0)
(0.512019 1.51377e-05 0)
(0.996318 0.00346845 0)
(0.996 0.0046552 0)
(0.995873 0.00535971 0)
(0.995722 0.00554141 0)
(0.995736 0.00551291 0)
(0.995804 0.00549935 0)
(0.996067 0.00554732 0)
(0.996232 0.00571128 0)
(0.996213 0.00587154 0)
(0.996043 0.00606777 0)
(0.995646 0.00623458 0)
(0.995206 0.00640023 0)
(0.994454 0.00657933 0)
(0.993524 0.00671743 0)
(0.992219 0.00690535 0)
(0.990579 0.00702196 0)
(0.988654 0.00717431 0)
(0.986167 0.00734344 0)
(0.983562 0.00743399 0)
(0.980463 0.00758789 0)
(0.97703 0.00770656 0)
(0.973244 0.00772897 0)
(0.96882 0.00755533 0)
(0.963993 0.00726811 0)
(0.95863 0.00691527 0)
(0.953071 0.00636398 0)
(0.94753 0.00567962 0)
(0.941732 0.00483853 0)
(0.936037 0.00384285 0)
(0.930444 0.00306908 0)
(0.924673 0.00266655 0)
(0.919274 0.00240746 0)
(0.914174 0.00224755 0)
(0.908679 0.0021069 0)
(0.903479 0.00179027 0)
(0.898354 0.0016268 0)
(0.892846 0.0017735 0)
(0.88758 0.00187246 0)
(0.882397 0.00179914 0)
(0.876767 0.00168832 0)
(0.871401 0.00157695 0)
(0.866013 0.00152448 0)
(0.86034 0.00153164 0)
(0.854464 0.00150748 0)
(0.848675 0.00143962 0)
(0.842747 0.00136766 0)
(0.836989 0.00129184 0)
(0.831439 0.00119536 0)
(0.826384 0.00108046 0)
(0.821347 0.000985599 0)
(0.816642 0.000904638 0)
(0.812002 0.00081576 0)
(0.807467 0.000742904 0)
(0.802937 0.000675424 0)
(0.798941 0.000588231 0)
(0.79494 0.000516432 0)
(0.791193 0.000465899 0)
(0.787755 0.000380196 0)
(0.784809 0.000290798 0)
(0.781926 0.000254502 0)
(0.779381 0.000237922 0)
(0.777102 0.000183327 0)
(0.775137 0.000126267 0)
(0.773348 9.69257e-05 0)
(0.771851 7.87824e-05 0)
(0.770573 4.96986e-05 0)
(0.769528 2.42259e-05 0)
(0.768642 1.09877e-05 0)
(0.767968 3.99152e-06 0)
(0.767379 -1.84699e-06 0)
(0.766994 -6.99861e-06 0)
(0.766621 -9.32071e-06 0)
(0.766473 -1.13311e-05 0)
(0.766261 -1.27539e-05 0)
(0.766293 -1.38986e-05 0)
(0.766219 -1.47105e-05 0)
(0.766397 -1.38733e-05 0)
(0.766438 -1.32811e-05 0)
(0.766701 -1.0703e-05 0)
(0.766784 -8.89974e-06 0)
(0.767058 -6.25463e-06 0)
(0.767094 -4.28228e-06 0)
(0.767341 -2.97045e-06 0)
(0.767285 -1.58914e-06 0)
(0.767509 -1.12903e-06 0)
(0.767372 -7.31366e-07 0)
(0.767582 1.17438e-08 0)
(0.76741 -7.66181e-07 0)
(0.767602 6.9151e-07 0)
(0.767421 -6.03368e-07 0)
(0.767611 7.75441e-07 0)
(0.767401 2.08045e-07 0)
(0.767635 7.2127e-07 0)
(0.767354 1.1986e-06 0)
(0.767647 1.34721e-06 0)
(0.767312 2.19462e-06 0)
(0.767613 3.04687e-06 0)
(0.767261 3.96576e-06 0)
(0.767536 4.83483e-06 0)
(0.767159 2.39927e-05 0)
(0.997057 0.00333081 0)
(0.996721 0.00435444 0)
(0.996509 0.00510618 0)
(0.996354 0.00550686 0)
(0.996369 0.00562994 0)
(0.996602 0.00565397 0)
(0.997031 0.00565808 0)
(0.997499 0.00578826 0)
(0.997859 0.00594406 0)
(0.998166 0.0061579 0)
(0.998467 0.00634982 0)
(0.9988 0.00653863 0)
(0.999123 0.00674782 0)
(0.999402 0.0069148 0)
(0.999574 0.00712148 0)
(0.999689 0.00724662 0)
(0.999714 0.00743161 0)
(0.999591 0.00762633 0)
(0.999569 0.00772274 0)
(0.999499 0.00788178 0)
(0.999459 0.008029 0)
(0.999449 0.00804796 0)
(0.999217 0.00784066 0)
(0.998774 0.00758483 0)
(0.998112 0.00727396 0)
(0.997372 0.00672229 0)
(0.996609 0.00604589 0)
(0.995565 0.00523904 0)
(0.994266 0.00429652 0)
(0.992547 0.00354296 0)
(0.990528 0.0031203 0)
(0.98876 0.00284508 0)
(0.987098 0.00268687 0)
(0.985191 0.00255065 0)
(0.983416 0.0022463 0)
(0.981348 0.00207585 0)
(0.979212 0.00222456 0)
(0.977601 0.00230823 0)
(0.976035 0.002197 0)
(0.973989 0.00206348 0)
(0.972125 0.00195559 0)
(0.970167 0.00193302 0)
(0.968017 0.00197463 0)
(0.965611 0.00197481 0)
(0.963188 0.00191566 0)
(0.96044 0.00183214 0)
(0.957758 0.00173987 0)
(0.955075 0.00161281 0)
(0.952671 0.00144776 0)
(0.950123 0.00132325 0)
(0.947967 0.00123773 0)
(0.945788 0.00114495 0)
(0.943703 0.00107667 0)
(0.941434 0.00101438 0)
(0.939428 0.000912953 0)
(0.937072 0.000825521 0)
(0.934895 0.000765112 0)
(0.932765 0.000656198 0)
(0.930893 0.000539482 0)
(0.928865 0.00048879 0)
(0.927152 0.000459022 0)
(0.925488 0.000380544 0)
(0.923993 0.000300086 0)
(0.922506 0.000253596 0)
(0.921279 0.000219754 0)
(0.920116 0.00017213 0)
(0.919123 0.000130202 0)
(0.918166 0.000102246 0)
(0.917414 8.27359e-05 0)
(0.916664 6.37085e-05 0)
(0.916128 4.67594e-05 0)
(0.915541 3.323e-05 0)
(0.91521 2.14281e-05 0)
(0.914781 1.08347e-05 0)
(0.914635 1.29572e-06 0)
(0.914361 -7.20324e-06 0)
(0.914375 -1.37275e-05 0)
(0.914251 -1.92755e-05 0)
(0.914395 -2.11614e-05 0)
(0.91439 -2.20008e-05 0)
(0.91463 -1.9618e-05 0)
(0.914673 -1.67416e-05 0)
(0.914957 -1.29398e-05 0)
(0.914959 -9.08893e-06 0)
(0.915234 -6.24924e-06 0)
(0.915157 -3.77865e-06 0)
(0.91539 -1.91346e-06 0)
(0.915264 -1.63076e-06 0)
(0.915446 3.34053e-07 0)
(0.915309 -8.25373e-07 0)
(0.915462 9.6783e-07 0)
(0.915307 3.05502e-07 0)
(0.915479 7.62794e-07 0)
(0.915278 2.00594e-06 0)
(0.915484 1.12797e-06 0)
(0.915252 3.61005e-06 0)
(0.915454 3.10796e-06 0)
(0.915226 6.29816e-06 0)
(0.915388 4.91229e-06 0)
(0.915167 2.84119e-05 0)
(0.997482 0.00329851 0)
(0.997148 0.00420187 0)