/*--------------------------------*- C++ -*----------------------------------*\
| =========                 |                                                 |
| \\      /  F ield         | OpenFOAM: The Open Source CFD Toolbox           |
|  \\    /   O peration     | Version:  v1906                                 |
|   \\  /    A nd           | Web:      www.OpenFOAM.com                      |
|    \\/     M anipulation  |                                                 |
\*---------------------------------------------------------------------------*/
FoamFile
{
    version     2.0;
    format      ascii;
    class       volScalarField;
    location    "0.5";
    object      p;
}
// * * * * * * * * * * * * * * * * * * * * * * * * * * * * * * * * * * * * * //

dimensions      [0 2 -2 0 0 0 0];


internalField   nonuniform List<scalar> 
800
(
1.28085e-06
0.00022835
0.00392433
0.0096192
0.0163109
0.0237978
0.0320759
0.0411759
0.0511821
0.0622485
0.0746129
0.0886268
0.104816
0.124023
0.147598
0.176931
0.213299
0.272244
0.40877
0.501929
-0.0135844
-0.014992
-0.013224
-0.00924008
-0.00405017
0.00205269
0.00896708
0.0166353
0.0250523
0.034264
0.0443599
0.0554662
0.0677338
0.0813253
0.0963837
0.112381
0.125966
0.133784
0.145552
0.0930076
-0.034358
-0.0364082
-0.0358939
-0.0333713
-0.0296866
-0.0251435
-0.0198992
-0.0140856
-0.00780701
-0.00115555
0.00575835
0.0127614
0.019537
0.0254852
0.0294891
0.029281
0.0197056
-0.00776301
-0.0596263
-0.162781
-0.0572603
-0.0590074
-0.0588847
-0.0572079
-0.0545914
-0.051292
-0.047482
-0.0433342
-0.0390238
-0.034749
-0.0307717
-0.027478
-0.0254761
-0.0257559
-0.0299298
-0.0406462
-0.0623694
-0.101607
-0.164905
-0.264447
-0.0815938
-0.0829017
-0.0829262
-0.0818433
-0.0800805
-0.0778499
-0.0753271
-0.0727088
-0.0702168
-0.0681199
-0.066775
-0.0666862
-0.0685918
-0.0735915
-0.0833188
-0.100166
-0.127547
-0.169762
-0.230994
-0.316686
-0.106992
-0.107907
-0.108006
-0.107387
-0.106346
-0.10506
-0.103703
-0.102484
-0.101648
-0.101503
-0.102452
-0.105044
-0.110037
-0.118489
-0.131855
-0.152088
-0.181672
-0.223359
-0.279403
-0.351409
-0.133035
-0.133596
-0.133718
-0.133462
-0.133025
-0.132558
-0.132228
-0.132242
-0.132853
-0.134379
-0.137228
-0.141938
-0.149219
-0.160003
-0.175492
-0.197172
-0.226752
-0.265888
-0.315602
-0.375799
-0.15939
-0.159631
-0.159746
-0.159777
-0.159844
-0.160076
-0.160628
-0.161698
-0.163529
-0.166427
-0.170776
-0.177068
-0.185923
-0.198116
-0.214583
-0.236399
-0.264675
-0.300336
-0.343714
-0.394151
-0.185798
-0.185755
-0.185848
-0.186108
-0.186596
-0.187418
-0.188716
-0.190669
-0.193499
-0.197485
-0.202969
-0.210376
-0.220222
-0.23312
-0.249769
-0.270911
-0.297236
-0.329207
-0.366802
-0.40925
-0.212046
-0.211749
-0.211812
-0.212259
-0.213097
-0.214414
-0.216334
-0.219013
-0.222643
-0.227465
-0.233771
-0.24191
-0.252294
-0.265388
-0.281693
-0.301698
-0.325805
-0.3542
-0.386693
-0.422562
-0.237957
-0.237429
-0.237457
-0.238058
-0.239192
-0.240926
-0.243364
-0.246633
-0.250893
-0.256341
-0.263213
-0.271785
-0.28237
-0.295307
-0.310937
-0.329566
-0.351399
-0.376462
-0.404497
-0.434881
-0.263377
-0.262637
-0.262627
-0.263361
-0.264752
-0.266844
-0.269718
-0.273471
-0.278225
-0.284132
-0.291373
-0.300155
-0.310704
-0.323253
-0.338018
-0.355171
-0.374791
-0.396808
-0.420949
-0.446692
-0.288174
-0.28723
-0.287185
-0.288044
-0.289672
-0.292086
-0.295341
-0.299501
-0.30465
-0.310896
-0.318365
-0.327202
-0.337558
-0.349579
-0.363386
-0.379055
-0.396578
-0.415835
-0.436558
-0.458314
-0.312227
-0.311078
-0.311005
-0.311998
-0.313866
-0.316593
-0.320205
-0.324729
-0.330211
-0.336716
-0.344323
-0.353118
-0.36319
-0.374613
-0.387437
-0.401666
-0.417237
-0.434
-0.451701
-0.46998
-0.335407
-0.334043
-0.333963
-0.335127
-0.337268
-0.340331
-0.344306
-0.349184
-0.354974
-0.3617
-0.369397
-0.378102
-0.387851
-0.39866
-0.410523
-0.423391
-0.437162
-0.45167
-0.466678
-0.481879
-0.357549
-0.355949
-0.355903
-0.357309
-0.359792
-0.363246
-0.367622
-0.372877
-0.378983
-0.385926
-0.393703
-0.402312
-0.411739
-0.421958
-0.432915
-0.444523
-0.456651
-0.469121
-0.481708
-0.49415
-0.378428
-0.376555
-0.376611
-0.378373
-0.381308
-0.385245
-0.390095
-0.395778
-0.402235
-0.409423
-0.417306
-0.425844
-0.43499
-0.444677
-0.454815
-0.465283
-0.475928
-0.486562
-0.496969
-0.506915
-0.397861
-0.395833
-0.396216
-0.398572
-0.402166
-0.40675
-0.412203
-0.418418
-0.42531
-0.432814
-0.440869
-0.449408
-0.458351
-0.4676
-0.477031
-0.486495
-0.495816
-0.504795
-0.513216
-0.520864
-0.415342
-0.413941
-0.41538
-0.418858
-0.423485
-0.428986
-0.435236
-0.442126
-0.449567
-0.457482
-0.465795
-0.474416
-0.483241
-0.49214
-0.500957
-0.509513
-0.517602
-0.525006
-0.531501
-0.536874
-0.426629
-0.426569
-0.429502
-0.434211
-0.439798
-0.44604
-0.452862
-0.460184
-0.467934
-0.47604
-0.48442
-0.492974
-0.501579
-0.510083
-0.518303
-0.526031
-0.533033
-0.539066
-0.543886
-0.547274
-0.416377
-0.973477
-1.07004
-1.04455
-1.00637
-0.971277
-0.941607
-0.917422
-0.897768
-0.881617
-0.868201
-0.856997
-0.847667
-0.840009
-0.833918
-0.829351
-0.826301
-0.824757
-0.824282
-0.82338
-0.388089
-0.72277
-0.846243
-0.886605
-0.898174
-0.895887
-0.887429
-0.877144
-0.866901
-0.857403
-0.848906
-0.841494
-0.835189
-0.830002
-0.825952
-0.823054
-0.821339
-0.820934
-0.821536
-0.820707
-0.406991
-0.612228
-0.72799
-0.789565
-0.821962
-0.836842
-0.841724
-0.841413
-0.838571
-0.834635
-0.830405
-0.826342
-0.822723
-0.819729
-0.817491
-0.816096
-0.815643
-0.816445
-0.818333
-0.817607
-0.421656
-0.566999
-0.666556
-0.729247
-0.767907
-0.790694
-0.803292
-0.809651
-0.812295
-0.812795
-0.812146
-0.810989
-0.809748
-0.808719
-0.808122
-0.808116
-0.808872
-0.810882
-0.81412
-0.813645
-0.430696
-0.539905
-0.623657
-0.68287
-0.723587
-0.750796
-0.768469
-0.779677
-0.786611
-0.790783
-0.793227
-0.794662
-0.795593
-0.796391
-0.797344
-0.798668
-0.800597
-0.803783
-0.808341
-0.808187
-0.437912
-0.522336
-0.592537
-0.646708
-0.687049
-0.716279
-0.737024
-0.751565
-0.761701
-0.768773
-0.773771
-0.777417
-0.780249
-0.782678
-0.785034
-0.787576
-0.790584
-0.794841
-0.800586
-0.800711
-0.443916
-0.511179
-0.570274
-0.618802
-0.657127
-0.686572
-0.708772
-0.725337
-0.737661
-0.746871
-0.753848
-0.759277
-0.763684
-0.767493
-0.771052
-0.774646
-0.778585
-0.783747
-0.790468
-0.790742
-0.449323
-0.504184
-0.554147
-0.597028
-0.632435
-0.660886
-0.683325
-0.700837
-0.714454
-0.72508
-0.733465
-0.740222
-0.745844
-0.750741
-0.755262
-0.7597
-0.764376
-0.77023
-0.777655
-0.777875
-0.454725
-0.500113
-0.54244
-0.579943
-0.611982
-0.638636
-0.660401
-0.677974
-0.692094
-0.703459
-0.712685
-0.7203
-0.726746
-0.732403
-0.737606
-0.742638
-0.747816
-0.754112
-0.761928
-0.761837
-0.460432
-0.498281
-0.534127
-0.566616
-0.595087
-0.619412
-0.639814
-0.656721
-0.67065
-0.682127
-0.691642
-0.699637
-0.706494
-0.712555
-0.718125
-0.723466
-0.728879
-0.735337
-0.743205
-0.742515
-0.466588
-0.498251
-0.528516
-0.556368
-0.581225
-0.602881
-0.62141
-0.637068
-0.650211
-0.661231
-0.670513
-0.678416
-0.685265
-0.691354
-0.696955
-0.702298
-0.707655
-0.713981
-0.721552
-0.719967
-0.473267
-0.499722
-0.525111
-0.548685
-0.56997
-0.588755
-0.605045
-0.618995
-0.630856
-0.640919
-0.649486
-0.65685
-0.663279
-0.669022
-0.674311
-0.67934
-0.684344
-0.69024
-0.697178
-0.69441
-0.480519
-0.50249
-0.523557
-0.543172
-0.560971
-0.576777
-0.590574
-0.602465
-0.612637
-0.621315
-0.628743
-0.635157
-0.640779
-0.645816
-0.650461
-0.654867
-0.659229
-0.664413
-0.670405
-0.6662
-0.488386
-0.506419
-0.523597
-0.539528
-0.553947
-0.566723
-0.577851
-0.587417
-0.595574
-0.602511
-0.60843
-0.613529
-0.617994
-0.621996
-0.625689
-0.629187
-0.632641
-0.636861
-0.64164
-0.63579
-0.49692
-0.511428
-0.525055
-0.537527
-0.548665
-0.558391
-0.566726
-0.573762
-0.579644
-0.584543
-0.588641
-0.59211
-0.595112
-0.597786
-0.600256
-0.602598
-0.604919
-0.607968
-0.611327
-0.603691
-0.506161
-0.517458
-0.527795
-0.536985
-0.544923
-0.55159
-0.55704
-0.561386
-0.564782
-0.567401
-0.569417
-0.570994
-0.572274
-0.573379
-0.574404
-0.57539
-0.576408
-0.57814
-0.579958
-0.570499
-0.516165
-0.5245
-0.531749
-0.537798
-0.542607
-0.546211
-0.548706
-0.550239
-0.550985
-0.551132
-0.550862
-0.550337
-0.549695
-0.549044
-0.548459
-0.547951
-0.547558
-0.547902
-0.548145
-0.536893
-0.527538
-0.533068
-0.537337
-0.540296
-0.541965
-0.542431
-0.541843
-0.540388
-0.538278
-0.535727
-0.532935
-0.530077
-0.527293
-0.524686
-0.522318
-0.520177
-0.518277
-0.517187
-0.51584
-0.502759
-0.540944
-0.543577
-0.544705
-0.544334
-0.542548
-0.539503
-0.535408
-0.530513
-0.525081
-0.519373
-0.513624
-0.508033
-0.502755
-0.497894
-0.493503
-0.489555
-0.486058
-0.483519
-0.480665
-0.466388
-0.549054
-0.549113
-0.547422
-0.544038
-0.539108
-0.532857
-0.525567
-0.517557
-0.509155
-0.500674
-0.492393
-0.48454
-0.477281
-0.470722
-0.464899
-0.459773
-0.455368
-0.452051
-0.44832
-0.43642
)
;

boundaryField
{
    zeroGradPlanes
    {
        type            zeroGradient;
    }
    inlet
    {
        type            zeroGradient;
    }
    plate
    {
        type            zeroGradient;
    }
    frontAndBack
    {
        type            empty;
    }
}


// ************************************************************************* //
