/*--------------------------------*- C++ -*----------------------------------*\
| =========                 |                                                 |
| \\      /  F ield         | OpenFOAM: The Open Source CFD Toolbox           |
|  \\    /   O peration     | Version:  v1906                                 |
|   \\  /    A nd           | Web:      www.OpenFOAM.com                      |
|    \\/     M anipulation  |                                                 |
\*---------------------------------------------------------------------------*/
FoamFile
{
    version     2.0;
    format      ascii;
    class       surfaceScalarField;
    location    "0.5";
    object      phi;
}
// * * * * * * * * * * * * * * * * * * * * * * * * * * * * * * * * * * * * * //

dimensions      [0 3 -1 0 0 0 0];
oriented        oriented;


internalField   nonuniform List<scalar> 
1540
(
4.99057e-05
4.29846e-07
4.97341e-05
1.39007e-06
4.95242e-05
2.44372e-06
4.92866e-05
3.58327e-06
4.90273e-05
4.80357e-06
4.87495e-05
6.10533e-06
4.84545e-05
7.49442e-06
4.81423e-05
8.98144e-06
4.78116e-05
1.05819e-05
4.74601e-05
1.23166e-05
4.70843e-05
1.42118e-05
4.66783e-05
1.6299e-05
4.62335e-05
1.86128e-05
4.57354e-05
2.11838e-05
4.51591e-05
2.40227e-05
4.44624e-05
2.70825e-05
4.35568e-05
3.01945e-05
4.21667e-05
3.29557e-05
3.95316e-05
3.42857e-05
3.08293e-05
3.48804e-05
4.99268e-05
5.03038e-07
4.97758e-05
1.54106e-06
4.95786e-05
2.64096e-06
4.93514e-05
3.81044e-06
4.91028e-05
5.0522e-06
4.88371e-05
6.37097e-06
4.85568e-05
7.77478e-06
4.82627e-05
9.27548e-06
4.79553e-05
1.08893e-05
4.76345e-05
1.26374e-05
4.72998e-05
1.45464e-05
4.69514e-05
1.66475e-05
4.65898e-05
1.89744e-05
4.62175e-05
2.15562e-05
4.58393e-05
2.44009e-05
4.54637e-05
2.74581e-05
4.51104e-05
3.05479e-05
4.48316e-05
3.32345e-05
4.46093e-05
3.4508e-05
3.19863e-05
4.34523e-05
4.99492e-05
5.53823e-07
4.98254e-05
1.66483e-06
4.96538e-05
2.8126e-06
4.94508e-05
4.01348e-06
4.92264e-05
5.27654e-06
4.89871e-05
6.6103e-06
4.87369e-05
8.02493e-06
4.84791e-05
9.53328e-06
4.82167e-05
1.11518e-05
4.79532e-05
1.29009e-05
4.76941e-05
1.48055e-05
4.74477e-05
1.68938e-05
4.7228e-05
1.91941e-05
4.70573e-05
2.17269e-05
4.69713e-05
2.44868e-05
4.70229e-05
2.74065e-05
4.72812e-05
3.02896e-05
4.78082e-05
3.27074e-05
4.84961e-05
3.38201e-05
3.212e-05
4.83624e-05
4.99641e-05
5.89683e-07
4.98684e-05
1.76059e-06
4.97291e-05
2.95188e-06
4.956e-05
4.18257e-06
4.93713e-05
5.46528e-06
4.91704e-05
6.81115e-06
4.89635e-05
8.23188e-06
4.87559e-05
9.74084e-06
4.85538e-05
1.13539e-05
4.83648e-05
1.30899e-05
4.81997e-05
1.49705e-05
4.80748e-05
1.70188e-05
4.80138e-05
1.92551e-05
4.80521e-05
2.16885e-05
4.82396e-05
2.42993e-05
4.86394e-05
2.70067e-05
4.93135e-05
2.96155e-05
5.02751e-05
3.17458e-05
5.13431e-05
3.27521e-05
3.16947e-05
5.17685e-05
4.99749e-05
6.14778e-07
4.99047e-05
1.8308e-06
4.97992e-05
3.05737e-06
4.96687e-05
4.31304e-06
4.95224e-05
5.61161e-06
4.93681e-05
6.96545e-06
4.92131e-05
8.3869e-06
4.90648e-05
9.88915e-06
4.89318e-05
1.14869e-05
4.88251e-05
1.31966e-05
4.87597e-05
1.50359e-05
4.87566e-05
1.70219e-05
4.88451e-05
1.91666e-05
4.90651e-05
2.14686e-05
4.9467e-05
2.38974e-05
5.01064e-05
2.63673e-05
5.10226e-05
2.86993e-05
5.219e-05
3.05784e-05
5.34153e-05
3.15268e-05
3.09517e-05
5.41583e-05
4.99836e-05
6.31193e-07
4.99361e-05
1.87833e-06
4.98632e-05
3.13027e-06
4.97723e-05
4.40389e-06
4.96712e-05
5.71275e-06
4.95673e-05
7.06929e-06
4.94686e-05
8.48563e-06
4.93836e-05
9.97416e-06
4.93226e-05
1.15479e-05
4.92988e-05
1.32205e-05
4.93294e-05
1.50053e-05
4.94376e-05
1.69136e-05
4.9654e-05
1.89502e-05
5.00169e-05
2.11057e-05
5.05708e-05
2.33435e-05
5.13577e-05
2.55804e-05
5.23956e-05
2.76614e-05
5.36379e-05
2.93362e-05
5.49065e-05
3.02581e-05
3.00447e-05
5.58135e-05
4.99908e-05
6.40359e-07
4.99633e-05
1.90586e-06
4.99207e-05
3.1729e-06
4.98682e-05
4.45637e-06
4.98121e-05
5.7689e-06
4.97592e-05
7.12219e-06
4.97173e-05
8.52752e-06
4.96954e-05
9.996e-06
4.97047e-05
1.15387e-05
4.97589e-05
1.31662e-05
4.98762e-05
1.4888e-05
5.00795e-05
1.67104e-05
5.03975e-05
1.86322e-05
5.08643e-05
2.06389e-05
5.15157e-05
2.26921e-05
5.23802e-05
2.47159e-05
5.34606e-05
2.6581e-05
5.4703e-05
2.80937e-05
5.59568e-05
2.90043e-05
2.90577e-05
5.69438e-05
4.9997e-05
6.43381e-07
4.99871e-05
1.91578e-06
4.9972e-05
3.18799e-06
4.99553e-05
4.47302e-06
4.9942e-05
5.78221e-06
4.9938e-05
7.12616e-06
4.99507e-05
8.51492e-06
4.99886e-05
9.95802e-06
5.00629e-05
1.14644e-05
5.01872e-05
1.30419e-05
5.03787e-05
1.46965e-05
5.06588e-05
1.64303e-05
5.10528e-05
1.82381e-05
5.15891e-05
2.01026e-05
5.22947e-05
2.19865e-05
5.31874e-05
2.38232e-05
5.42608e-05
2.55077e-05
5.54626e-05
2.68919e-05
5.66716e-05
2.77953e-05
2.8042e-05
5.76873e-05
5.00023e-05
6.41127e-07
5.00078e-05
1.91023e-06
5.00174e-05
3.17838e-06
5.00335e-05
4.45695e-06
5.00597e-05
5.75598e-06
5.01011e-05
7.0848e-06
5.01639e-05
8.45205e-06
5.02563e-05
9.8656e-06
5.03884e-05
1.13323e-05
5.05729e-05
1.28575e-05
5.08252e-05
1.44442e-05
5.11643e-05
1.60913e-05
5.16114e-05
1.7791e-05
5.2189e-05
1.9525e-05
5.29169e-05
2.12586e-05
5.38048e-05
2.29353e-05
5.48418e-05
2.44707e-05
5.59816e-05
2.57521e-05
5.71292e-05
2.66477e-05
2.70324e-05
5.81389e-05
5.00068e-05
6.34299e-07
5.0026e-05
1.89106e-06
5.00576e-05
3.14674e-06
5.01031e-05
4.41145e-06
5.01651e-05
5.69402e-06
5.02474e-05
7.00253e-06
5.03552e-05
8.3442e-06
5.04956e-05
9.72524e-06
5.06773e-05
1.11505e-05
5.09115e-05
1.26233e-05
5.12117e-05
1.4144e-05
5.15936e-05
1.57094e-05
5.20745e-05
1.73101e-05
5.26717e-05
1.89278e-05
5.33989e-05
2.05315e-05
5.42607e-05
2.20735e-05
5.52446e-05
2.34867e-05
5.63116e-05
2.46851e-05
5.73882e-05
2.55711e-05
2.6053e-05
5.83676e-05
5.00109e-05
6.23448e-07
5.00421e-05
1.85977e-06
5.00935e-05
3.09542e-06
5.01653e-05
4.33959e-06
5.02592e-05
5.60015e-06
5.03777e-05
6.88399e-06
5.05249e-05
8.19699e-06
5.07064e-05
9.54376e-06
5.09295e-05
1.09274e-05
5.12035e-05
1.23493e-05
5.15394e-05
1.3808e-05
5.19502e-05
1.52987e-05
5.24493e-05
1.6811e-05
5.30495e-05
1.83275e-05
5.37601e-05
1.98208e-05
5.45825e-05
2.12511e-05
5.55042e-05
2.25649e-05
5.64933e-05
2.3696e-05
5.74934e-05
2.4571e-05
2.51208e-05
5.84257e-05
5.00145e-05
6.08966e-07
5.00568e-05
1.81747e-06
5.0126e-05
3.02624e-06
5.02215e-05
4.24401e-06
5.03438e-05
5.47786e-06
5.04942e-05
6.73365e-06
5.06752e-05
8.01592e-06
5.08912e-05
9.32784e-06
5.11477e-05
1.06709e-05
5.14521e-05
1.20449e-05
5.18132e-05
1.34469e-05
5.22411e-05
1.48708e-05
5.2746e-05
1.63061e-05
5.33371e-05
1.77364e-05
5.40203e-05
1.91376e-05
5.4795e-05
2.04765e-05
5.56499e-05
2.171e-05
5.65593e-05
2.27867e-05
5.748e-05
2.36502e-05
2.42473e-05
5.83534e-05
5.00179e-05
5.91042e-07
5.00706e-05
1.76478e-06
5.01564e-05
2.94044e-06
5.02737e-05
4.12674e-06
5.04214e-05
5.33016e-06
5.05995e-05
6.55551e-06
5.08093e-05
7.80611e-06
5.10535e-05
9.08367e-06
5.13361e-05
1.03883e-05
5.16628e-05
1.17183e-05
5.204e-05
1.30696e-05
5.24754e-05
1.44354e-05
5.29764e-05
1.58051e-05
5.35495e-05
1.71634e-05
5.4198e-05
1.84891e-05
5.49203e-05
1.97542e-05
5.57065e-05
2.09238e-05
5.65361e-05
2.19571e-05
5.73762e-05
2.28101e-05
2.34406e-05
5.8183e-05
5.00214e-05
5.69594e-07
5.00845e-05
1.70171e-06
5.01864e-05
2.83854e-06
5.0324e-05
3.98917e-06
5.04947e-05
5.15947e-06
5.06971e-05
6.35315e-06
5.0931e-05
7.57218e-06
5.11978e-05
8.81688e-06
5.15001e-05
1.0086e-05
5.18417e-05
1.13767e-05
5.22274e-05
1.26839e-05
5.26625e-05
1.40002e-05
5.31524e-05
1.53153e-05
5.3701e-05
1.66147e-05
5.43103e-05
1.78798e-05
5.49778e-05
1.90867e-05
5.5695e-05
2.02065e-05
5.64459e-05
2.12062e-05
5.72055e-05
2.20505e-05
2.27053e-05
5.79407e-05
5.00254e-05
5.44165e-07
5.00996e-05
1.62752e-06
5.02179e-05
2.7203e-06
5.03749e-05
3.83209e-06
5.05666e-05
4.9678e-06
5.079e-05
6.12976e-06
5.10438e-05
7.31838e-06
5.13281e-05
8.53259e-06
5.16442e-05
9.76986e-06
5.19947e-05
1.10262e-05
5.23826e-05
1.2296e-05
5.28115e-05
1.35713e-05
5.32848e-05
1.4842e-05
5.38048e-05
1.60947e-05
5.43722e-05
1.73125e-05
5.49842e-05
1.84747e-05
5.56337e-05
1.9557e-05
5.63079e-05
2.0532e-05
5.6988e-05
2.13704e-05
2.2044e-05
5.76493e-05
5.00304e-05
5.13784e-07
5.01173e-05
1.54063e-06
5.02527e-05
2.5849e-06
5.04288e-05
3.65599e-06
5.06395e-05
4.75708e-06
5.08808e-05
5.88847e-06
5.11504e-05
7.0488e-06
5.14475e-05
8.2355e-06
5.17724e-05
9.44488e-06
5.21266e-05
1.06721e-05
5.25117e-05
1.19108e-05
5.293e-05
1.31531e-05
5.33831e-05
1.43889e-05
5.38722e-05
1.56055e-05
5.43969e-05
1.67878e-05
5.49543e-05
1.79173e-05
5.55385e-05
1.89729e-05
5.61393e-05
1.99311e-05
5.67425e-05
2.07672e-05
2.14569e-05
5.73297e-05
5.00371e-05
4.76648e-07
5.01392e-05
1.43858e-06
5.02928e-05
2.43127e-06
5.04871e-05
3.46172e-06
5.07145e-05
4.52971e-06
5.09701e-05
5.63279e-06
5.12513e-05
6.76759e-06
5.15568e-05
7.93006e-06
5.18862e-05
9.1155e-06
5.22399e-05
1.03184e-05
5.26187e-05
1.1532e-05
5.30234e-05
1.27483e-05
5.34548e-05
1.39575e-05
5.39127e-05
1.51477e-05
5.43959e-05
1.63046e-05
5.49016e-05
1.74116e-05
5.54246e-05
1.84499e-05
5.59569e-05
1.93988e-05
5.64878e-05
2.02363e-05
2.0941e-05
5.70037e-05
5.00477e-05
4.28927e-07
5.01677e-05
1.31856e-06
5.03395e-05
2.2595e-06
5.05496e-05
3.25164e-06
5.07899e-05
4.28941e-06
5.10556e-05
5.36706e-06
5.13441e-05
6.47916e-06
5.16537e-05
7.62042e-06
5.19838e-05
8.78537e-06
5.23341e-05
9.96804e-06
5.27046e-05
1.11616e-05
5.3095e-05
1.23579e-05
5.3505e-05
1.35475e-05
5.39336e-05
1.4719e-05
5.43791e-05
1.58591e-05
5.48383e-05
1.69523e-05
5.53069e-05
1.79814e-05
5.57783e-05
1.89273e-05
5.62445e-05
1.97702e-05
2.04902e-05
5.66953e-05
5.0065e-05
3.6391e-07
5.02036e-05
1.17997e-06
5.039e-05
2.07313e-06
5.06106e-05
3.031e-06
5.08583e-05
4.0417e-06
5.11291e-05
5.09633e-06
5.14204e-05
6.18782e-06
5.17308e-05
7.31001e-06
5.20592e-05
8.45694e-06
5.24049e-05
9.6224e-06
5.27669e-05
1.07995e-05
5.31445e-05
1.19804e-05
5.35363e-05
1.31557e-05
5.39407e-05
1.43146e-05
5.43554e-05
1.54444e-05
5.47773e-05
1.65305e-05
5.52021e-05
1.75566e-05
5.56246e-05
1.85048e-05
5.60384e-05
1.93564e-05
2.00925e-05
5.64361e-05
5.00813e-05
5.02346e-05
5.04279e-05
5.06521e-05
5.09018e-05
5.11735e-05
5.14649e-05
5.17745e-05
5.2101e-05
5.24431e-05
5.27996e-05
5.3169e-05
5.35498e-05
5.39396e-05
5.43359e-05
5.47354e-05
5.5134e-05
5.5527e-05
5.59091e-05
5.62743e-05
1.92301e-05
1.56503e-05
1.18734e-05
7.35669e-06
8.32155e-06
3.55186e-06
6.45407e-06
1.86748e-06
5.36957e-06
1.0845e-06
4.67543e-06
6.94138e-07
4.1925e-06
4.82936e-07
3.83501e-06
3.57489e-07
3.55934e-06
2.75673e-07
3.34156e-06
2.17775e-07
3.16753e-06
1.7403e-07
3.02828e-06
1.39253e-07
2.91774e-06
1.10535e-07
2.83149e-06
8.62504e-08
2.76587e-06
6.56235e-08
2.71731e-06
4.85589e-08
2.68162e-06
3.56864e-08
2.65331e-06
2.83175e-08
2.62743e-06
2.58774e-08
2.09806e-08
3.61536e-05
2.2949e-05
2.88802e-05
1.46301e-05
2.33163e-05
9.11572e-06
1.93589e-05
5.82496e-06
1.65632e-05
3.88011e-06
1.45492e-05
2.70823e-06
1.30557e-05
1.97644e-06
1.19161e-05
1.49701e-06
1.10258e-05
1.16605e-06
1.03178e-05
9.25701e-07
9.74895e-06
7.42915e-07
9.29e-06
5.982e-07
8.92073e-06
4.79808e-07
8.62625e-06
3.80727e-07
8.39473e-06
2.97144e-07
8.21564e-06
2.27651e-07
8.07843e-06
1.72899e-07
7.97179e-06
1.34961e-07
7.88463e-06
1.13033e-07
9.77768e-08
4.49236e-05
2.63878e-05
3.98336e-05
1.97201e-05
3.4739e-05
1.42103e-05
3.03516e-05
1.02124e-05
2.6794e-05
7.43774e-06
2.39689e-05
5.53337e-06
2.17298e-05
4.21548e-06
1.99434e-05
3.28341e-06
1.85049e-05
2.6046e-06
1.73366e-05
2.09396e-06
1.63825e-05
1.69706e-06
1.56018e-05
1.3789e-06
1.49646e-05
1.11696e-06
1.44484e-05
8.96974e-07
1.40349e-05
7.10617e-07
1.37085e-05
5.54075e-07
1.34541e-05
4.27274e-07
1.32563e-05
3.32807e-07
1.30981e-05
2.71197e-07
2.34985e-07
5.01971e-05
2.79592e-05
4.69444e-05
2.29728e-05
4.29824e-05
1.81723e-05
3.90334e-05
1.41614e-05
3.54502e-05
1.10209e-05
3.23483e-05
8.63527e-06
2.97237e-05
6.84008e-06
2.75244e-05
5.48273e-06
2.5687e-05
4.44201e-06
2.41525e-05
3.62843e-06
2.28714e-05
2.9782e-06
2.18037e-05
2.4466e-06
2.09178e-05
2.00285e-06
2.01884e-05
1.62635e-06
1.95947e-05
1.30433e-06
1.91184e-05
1.03037e-06
1.87422e-05
8.03518e-07
1.84477e-05
6.27238e-07
1.82138e-05
5.05174e-07
4.35393e-07
5.35948e-05
2.85227e-05
5.16605e-05
2.49071e-05
4.88354e-05
2.09973e-05
4.56411e-05
1.73557e-05
4.24443e-05
1.42177e-05
3.94526e-05
1.1627e-05
3.67592e-05
9.53353e-06
3.43883e-05
7.85354e-06
3.2329e-05
6.50132e-06
3.05551e-05
5.4024e-06
2.90362e-05
4.49703e-06
2.77435e-05
3.73934e-06
2.66509e-05
3.0954e-06
2.57361e-05
2.54118e-06
2.49794e-05
2.06102e-06
2.43631e-05
1.64671e-06
2.38696e-05
1.29695e-06
2.348e-05
1.01689e-06
2.31701e-05
8.15111e-07
6.99127e-07
5.5838e-05
2.84983e-05
5.48151e-05
2.593e-05
5.29412e-05
2.28712e-05
5.05387e-05
1.97581e-05
4.79028e-05
1.68536e-05
4.52498e-05
1.428e-05
4.27161e-05
1.20672e-05
4.0376e-05
1.01937e-05
3.82617e-05
8.61555e-06
3.63806e-05
7.28353e-06
3.47262e-05
6.15146e-06
3.32856e-05
5.17991e-06
3.20438e-05
4.33724e-06
3.09853e-05
3.59967e-06
3.00952e-05
2.95106e-06
2.9359e-05
2.38291e-06
2.87613e-05
1.89464e-06
2.8284e-05
1.49419e-06
2.79022e-05
1.19689e-06
1.02341e-06
5.73207e-05
2.81214e-05
5.69148e-05
2.63359e-05
5.57758e-05
2.40102e-05
5.40804e-05
2.14535e-05
5.20354e-05
1.88986e-05
4.98248e-05
1.64906e-05
4.75891e-05
1.43029e-05
4.54244e-05
1.23583e-05
4.33905e-05
1.06494e-05
4.15205e-05
9.1536e-06
3.98295e-05
7.84247e-06
3.83216e-05
6.68775e-06
3.69945e-05
5.66435e-06
3.58421e-05
4.75205e-06
3.48565e-05
3.93671e-06
3.40281e-05
3.21128e-06
3.33456e-05
2.5772e-06
3.27933e-05
2.04643e-06
3.23476e-05
1.64262e-06
1.40286e-06
5.82738e-05
2.75349e-05
5.82787e-05
2.6331e-05
5.76833e-05
2.46056e-05
5.65699e-05
2.25669e-05
5.50695e-05
2.0399e-05
5.33207e-05
1.82394e-05
5.14466e-05
1.6177e-05
4.95447e-05
1.42603e-05
4.76863e-05
1.25079e-05
4.59201e-05
1.09198e-05
4.42772e-05
9.4853e-06
4.27762e-05
8.18883e-06
4.14264e-05
7.01411e-06
4.02316e-05
5.94682e-06
3.91916e-05
4.97675e-06
3.8303e-05
4.0999e-06
3.75592e-05
3.32101e-06
3.69485e-05
2.65709e-06
3.64497e-05
2.1414e-06
1.82992e-06
5.8843e-05
2.68308e-05
5.91155e-05
2.60585e-05
5.89095e-05
2.48116e-05
5.82516e-05
2.32249e-05
5.72161e-05
2.14345e-05
5.58987e-05
1.95568e-05
5.43966e-05
1.76792e-05
5.27965e-05
1.58603e-05
5.11697e-05
1.41347e-05
4.9571e-05
1.25184e-05
4.80409e-05
1.10154e-05
4.66078e-05
9.62203e-06
4.52905e-05
8.33134e-06
4.41014e-05
7.13593e-06
4.30474e-05
6.03076e-06
4.21313e-05
5.016e-06
4.13517e-05
4.10063e-06
4.07013e-05
3.3075e-06
4.01624e-05
2.6803e-06
2.2954e-06
5.91278e-05
2.60705e-05
5.95675e-05
2.56188e-05
5.96318e-05
2.47474e-05
5.93165e-05
2.35401e-05
5.86576e-05
2.20933e-05
5.77159e-05
2.04985e-05
5.65623e-05
1.88327e-05
5.52677e-05
1.7155e-05
5.38959e-05
1.55065e-05
5.2501e-05
1.39133e-05
5.11266e-05
1.23898e-05
4.98064e-05
1.09422e-05
4.85657e-05
9.57199e-06
4.74231e-05
8.27857e-06
4.63913e-05
7.06252e-06
4.54786e-05
5.92875e-06
4.46882e-05
4.89102e-06
4.40172e-05
3.97846e-06
4.34521e-05
3.24543e-06
2.78911e-06
5.91998e-05
2.52963e-05
5.97355e-05
2.50832e-05
5.99793e-05
2.45035e-05
5.99121e-05
2.36073e-05
5.95457e-05
2.24598e-05
5.89147e-05
2.11295e-05
5.80677e-05
1.96797e-05
5.70587e-05
1.8164e-05
5.59408e-05
1.66244e-05
5.47629e-05
1.50912e-05
5.35671e-05
1.35856e-05
5.23888e-05
1.21206e-05
5.12561e-05
1.07046e-05
5.01915e-05
9.3432e-06
4.92118e-05
8.0422e-06
4.83292e-05
6.81135e-06
4.75509e-05
5.66934e-06
4.68777e-05
4.6516e-06
4.63003e-05
3.8229e-06
3.30053e-06
5.91122e-05
2.45376e-05
5.96929e-05
2.45024e-05
6.00482e-05
2.41482e-05
6.01527e-05
2.35028e-05
6.0004e-05
2.26085e-05
5.96192e-05
2.15143e-05
5.90289e-05
2.027e-05
5.82721e-05
1.89209e-05
5.73905e-05
1.75059e-05
5.64255e-05
1.60563e-05
5.5415e-05
1.4596e-05
5.43927e-05
1.31429e-05
5.33872e-05
1.17101e-05
5.24223e-05
1.03081e-05
5.15171e-05
8.94744e-06
5.06861e-05
7.64236e-06
4.99392e-05
6.41626e-06
4.92802e-05
5.31058e-06
4.87034e-05
4.39969e-06
3.8194e-06
5.89059e-05
2.38147e-05
5.94954e-05
2.3913e-05
5.9911e-05
2.37326e-05
6.01268e-05
2.3287e-05
6.0133e-05
2.26023e-05
5.9935e-05
2.17123e-05
5.95508e-05
2.06542e-05
5.90067e-05
1.9465e-05
5.83341e-05
1.81785e-05
5.75662e-05
1.68243e-05
5.67352e-05
1.5427e-05
5.58713e-05
1.40068e-05
5.50015e-05
1.25799e-05
5.41489e-05
1.11606e-05
5.3333e-05
9.76335e-06
5.25693e-05
8.40611e-06
5.18689e-05
7.11662e-06
5.12377e-05
5.94175e-06
5.06731e-05
4.96436e-06
4.33629e-06
5.86136e-05
2.31418e-05
5.9186e-05
2.33407e-05
5.96244e-05
2.32942e-05
5.99047e-05
2.30066e-05
6.00143e-05
2.24927e-05
5.99518e-05
2.17748e-05
5.97263e-05
2.08798e-05
5.93546e-05
1.98366e-05
5.88594e-05
1.86738e-05
5.82658e-05
1.74178e-05
5.76004e-05
1.60925e-05
5.68886e-05
1.47186e-05
5.61543e-05
1.33142e-05
5.54187e-05
1.18963e-05
5.47001e-05
1.04819e-05
5.40136e-05
9.0926e-06
5.33706e-05
7.75963e-06
5.27777e-05
6.5346e-06
5.22346e-05
5.50748e-06
4.84303e-06
5.82632e-05
2.25279e-05
5.88003e-05
2.28035e-05
5.92342e-05
2.28603e-05
5.95439e-05
2.2697e-05
5.97162e-05
2.23204e-05
5.97464e-05
2.17445e-05
5.96379e-05
2.09882e-05
5.94009e-05
2.00736e-05
5.90507e-05
1.9024e-05
5.8606e-05
1.78625e-05
5.80873e-05
1.66112e-05
5.75154e-05
1.52905e-05
5.69101e-05
1.39195e-05
5.62898e-05
1.25166e-05
5.56706e-05
1.11011e-05
5.50662e-05
9.69702e-06
5.4487e-05
8.3388e-06
5.39397e-05
7.08189e-06
5.34253e-05
6.0219e-06
5.3331e-06
5.78797e-05
2.1978e-05
5.83703e-05
2.23129e-05
5.87807e-05
2.24498e-05
5.9094e-05
2.23837e-05
5.9298e-05
2.21164e-05
5.93869e-05
2.16557e-05
5.93607e-05
2.10145e-05
5.92249e-05
2.02094e-05
5.89896e-05
1.92593e-05
5.8668e-05
1.81841e-05
5.82752e-05
1.70039e-05
5.78273e-05
1.57384e-05
5.73401e-05
1.44067e-05
5.68285e-05
1.30282e-05
5.63059e-05
1.16237e-05
5.57837e-05
1.02192e-05
5.52708e-05
8.85169e-06
5.47731e-05
7.57968e-06
5.4292e-05
6.50291e-06
5.80204e-06
5.74889e-05
2.14928e-05
5.79271e-05
2.18747e-05
5.83027e-05
2.20742e-05
5.86023e-05
2.20841e-05
5.8816e-05
2.19028e-05
5.89377e-05
2.15339e-05
5.8966e-05
2.09861e-05
5.89035e-05
2.02719e-05
5.87563e-05
1.94065e-05
5.85333e-05
1.84071e-05
5.82452e-05
1.72921e-05
5.79035e-05
1.608e-05
5.75203e-05
1.479e-05
5.71069e-05
1.34416e-05
5.66736e-05
1.20569e-05
5.62295e-05
1.06634e-05
5.57812e-05
9.29993e-06
5.53334e-05
8.02746e-06
5.48877e-05
6.94863e-06
6.24736e-06
5.71197e-05
2.10685e-05
5.75057e-05
2.14887e-05
5.7842e-05
2.17379e-05
5.81187e-05
2.18074e-05
5.83279e-05
2.16936e-05
5.84645e-05
2.13972e-05
5.85266e-05
2.09241e-05
5.85149e-05
2.02836e-05
5.84328e-05
1.94886e-05
5.82858e-05
1.85541e-05
5.8081e-05
1.74969e-05
5.78263e-05
1.63347e-05
5.75301e-05
1.50862e-05
5.72005e-05
1.37712e-05
5.6845e-05
1.24124e-05
5.647e-05
1.10384e-05
5.60805e-05
9.68945e-06
5.56796e-05
8.42834e-06
5.52678e-05
7.36045e-06
6.6677e-06
5.68095e-05
2.0695e-05
5.71504e-05
2.11478e-05
5.74506e-05
2.14377e-05
5.77029e-05
2.15551e-05
5.79016e-05
2.14948e-05
5.80427e-05
2.12562e-05
5.81239e-05
2.08428e-05
5.81451e-05
2.02624e-05
5.8108e-05
1.95257e-05
5.80156e-05
1.86465e-05
5.78723e-05
1.76403e-05
5.76829e-05
1.6524e-05
5.7453e-05
1.53161e-05
5.71881e-05
1.40361e-05
5.68933e-05
1.27072e-05
5.65733e-05
1.13584e-05
5.62314e-05
1.00313e-05
5.58705e-05
8.78926e-06
5.54918e-05
7.73917e-06
7.06824e-06
5.66162e-05
5.69286e-05
5.72054e-05
5.74411e-05
5.76313e-05
5.77727e-05
5.78632e-05
5.79022e-05
5.78903e-05
5.78291e-05
5.77212e-05
5.75699e-05
5.73789e-05
5.71519e-05
5.68928e-05
5.66052e-05
5.6293e-05
5.59589e-05
5.56041e-05
)
;

boundaryField
{
    zeroGradPlanes
    {
        type            calculated;
        value           nonuniform List<scalar> 
80
(
-3.35553e-07
-1.21849e-06
-2.23378e-06
-3.34566e-06
-4.54429e-06
-5.82755e-06
-7.19943e-06
-8.66918e-06
-1.02512e-05
-1.19651e-05
-1.38359e-05
-1.58931e-05
-1.8168e-05
-2.06857e-05
-2.34464e-05
-2.63858e-05
-2.9289e-05
-3.15656e-05
-3.16505e-05
-2.61781e-05
2.60645e-06
7.80783e-06
1.29609e-05
1.80134e-05
2.29063e-05
2.7578e-05
3.19681e-05
3.60227e-05
3.96969e-05
4.29584e-05
4.57889e-05
4.81845e-05
5.01562e-05
5.17279e-05
5.29352e-05
5.38231e-05
5.44424e-05
5.48474e-05
5.50912e-05
5.52056e-05
2.82594e-07
1.02666e-06
1.87987e-06
2.8068e-06
3.79202e-06
4.82462e-06
5.89636e-06
7.00041e-06
8.1305e-06
9.28032e-06
1.0443e-05
1.16109e-05
1.2775e-05
1.39247e-05
1.50481e-05
1.6131e-05
1.7158e-05
1.81117e-05
1.89743e-05
1.97273e-05
2.03531e-05
2.08354e-05
2.11609e-05
2.13194e-05
2.13046e-05
2.11148e-05
2.07523e-05
2.02234e-05
1.95376e-05
1.87077e-05
1.77481e-05
1.66753e-05
1.55071e-05
1.42631e-05
1.29663e-05
1.1646e-05
1.03435e-05
9.12341e-06
8.09392e-06
7.46672e-06
)
;
    }
    inlet
    {
        type            calculated;
        value           nonuniform List<scalar> 
20
(
-5e-05
-5e-05
-5e-05
-5e-05
-5e-05
-5e-05
-5e-05
-5e-05
-5e-05
-5e-05
-5e-05
-5e-05
-5e-05
-5e-05
-5e-05
-5e-05
-5e-05
-5e-05
-5e-05
-5e-05
)
;
    }
    plate
    {
        type            calculated;
        value           uniform 0;
    }
    frontAndBack
    {
        type            empty;
        value           nonuniform 0();
    }
}


// ************************************************************************* //
