/*--------------------------------*- C++ -*----------------------------------*\
| =========                 |                                                 |
| \\      /  F ield         | OpenFOAM: The Open Source CFD Toolbox           |
|  \\    /   O peration     | Version:  v1906                                 |
|   \\  /    A nd           | Web:      www.OpenFOAM.com                      |
|    \\/     M anipulation  |                                                 |
\*---------------------------------------------------------------------------*/
FoamFile
{
    version     2.0;
    format      ascii;
    class       volVectorField;
    location    "0.5";
    object      U;
}
// * * * * * * * * * * * * * * * * * * * * * * * * * * * * * * * * * * * * * //

dimensions      [0 1 -1 0 0 0 0];


internalField   nonuniform List<vector> 
800
(
(0.999279 0.00749963 0)
(0.996679 0.0256298 0)
(0.992808 0.0461024 0)
(0.988243 0.0684874 0)
(0.983237 0.0925901 0)
(0.977855 0.118376 0)
(0.972123 0.145933 0)
(0.966051 0.175455 0)
(0.959627 0.207235 0)
(0.952816 0.241678 0)
(0.945559 0.279295 0)
(0.937766 0.320696 0)
(0.929294 0.366541 0)
(0.91993 0.417393 0)
(0.909363 0.473363 0)
(0.896887 0.533333 0)
(0.880245 0.593414 0)
(0.857188 0.643449 0)
(0.840109 0.65602 0)
(0.824764 0.558781 0)
(0.999486 0.00924984 0)
(0.997323 0.0291215 0)
(0.99377 0.0505916 0)
(0.989436 0.0736296 0)
(0.984639 0.0982121 0)
(0.979479 0.12439 0)
(0.97401 0.152299 0)
(0.968261 0.182163 0)
(0.962245 0.214298 0)
(0.955963 0.249127 0)
(0.949408 0.28718 0)
(0.942576 0.329093 0)
(0.935469 0.375558 0)
(0.928114 0.427191 0)
(0.920617 0.484201 0)
(0.913165 0.545649 0)
(0.905594 0.608097 0)
(0.898215 0.66308 0)
(0.899314 0.689132 0)
(0.907787 0.629985 0)
(0.999679 0.010631 0)
(0.998033 0.0322078 0)
(0.99502 0.0547218 0)
(0.991185 0.0784401 0)
(0.986864 0.1035 0)
(0.982202 0.130043 0)
(0.977289 0.158252 0)
(0.972195 0.188378 0)
(0.966976 0.220751 0)
(0.961697 0.255793 0)
(0.956442 0.294025 0)
(0.951341 0.336056 0)
(0.946606 0.382523 0)
(0.942582 0.433947 0)
(0.939849 0.490386 0)
(0.939324 0.550693 0)
(0.942125 0.611124 0)
(0.949529 0.663125 0)
(0.964482 0.688572 0)
(0.980971 0.649405 0)
(0.999792 0.0114887 0)
(0.998574 0.0343925 0)
(0.996181 0.057828 0)
(0.993021 0.0821675 0)
(0.989395 0.107643 0)
(0.985467 0.13446 0)
(0.981361 0.162842 0)
(0.977189 0.193053 0)
(0.97306 0.225421 0)
(0.969107 0.260344 0)
(0.965508 0.298293 0)
(0.96252 0.339787 0)
(0.960532 0.385323 0)
(0.96012 0.435203 0)
(0.962131 0.489176 0)
(0.967732 0.545739 0)
(0.978251 0.600916 0)
(0.9947 0.646547 0)
(1.01707 0.668026 0)
(1.038 0.641936 0)
(0.999862 0.0120812 0)
(0.998992 0.0360198 0)
(0.997207 0.0602466 0)
(0.994788 0.0851423 0)
(0.991975 0.11098 0)
(0.988933 0.138001 0)
(0.985804 0.16645 0)
(0.982733 0.196598 0)
(0.979875 0.228751 0)
(0.977418 0.263267 0)
(0.975616 0.300542 0)
(0.974818 0.340977 0)
(0.975515 0.384896 0)
(0.978393 0.432368 0)
(0.984361 0.482871 0)
(0.994535 0.534703 0)
(1.00999 0.584069 0)
(1.03117 0.623981 0)
(1.05676 0.643402 0)
(1.08009 0.627845 0)
(0.999914 0.01249 0)
(0.999335 0.0371855 0)
(0.998113 0.0620229 0)
(0.996431 0.0873555 0)
(0.994472 0.113462 0)
(0.992385 0.140594 0)
(0.99032 0.169002 0)
(0.988439 0.198943 0)
(0.986924 0.230696 0)
(0.986005 0.264565 0)
(0.98598 0.300859 0)
(0.987244 0.339861 0)
(0.990328 0.38173 0)
(0.995922 0.426348 0)
(1.00488 0.473022 0)
(1.01811 0.520036 0)
(1.03637 0.564029 0)
(1.0596 0.599375 0)
(1.08602 0.61801 0)
(1.11015 0.610672 0)
(0.999954 0.0127419 0)
(0.999625 0.0379267 0)
(0.998911 0.0631683 0)
(0.997928 0.0887818 0)
(0.996809 0.115031 0)
(0.995684 0.14216 0)
(0.994696 0.170406 0)
(0.994011 0.200006 0)
(0.993826 0.2312 0)
(0.994386 0.264233 0)
(0.996005 0.299332 0)
(0.999087 0.336666 0)
(1.00415 0.376266 0)
(1.01183 0.417878 0)
(1.02284 0.460739 0)
(1.0379 0.503242 0)
(1.05742 0.542545 0)
(1.08107 0.574259 0)
(1.10704 0.592572 0)
(1.13107 0.591384 0)
(0.999987 0.0128602 0)
(0.999872 0.0382913 0)
(0.999613 0.0637323 0)
(0.999274 0.0894592 0)
(0.998947 0.115712 0)
(0.998743 0.142715 0)
(0.998791 0.170683 0)
(0.99925 0.199823 0)
(1.00031 0.230335 0)
(1.00223 0.262404 0)
(1.00529 0.296181 0)
(1.00989 0.331745 0)
(1.0165 0.369026 0)
(1.02567 0.407695 0)
(1.03796 0.446985 0)
(1.05389 0.485467 0)
(1.07366 0.520809 0)
(1.09679 0.549647 0)
(1.12167 0.567791 0)
(1.14505 0.571099 0)
(1.00002 0.0128649 0)
(1.00009 0.0383262 0)
(1.00023 0.063774 0)
(1.00047 0.0894493 0)
(1.00087 0.115565 0)
(1.00152 0.142321 0)
(1.00253 0.169904 0)
(1.00404 0.198489 0)
(1.00623 0.228233 0)
(1.00933 0.259267 0)
(1.01361 0.291677 0)
(1.01943 0.32547 0)
(1.02718 0.360511 0)
(1.03732 0.396433 0)
(1.05029 0.432514 0)
(1.06643 0.467524 0)
(1.08579 0.499585 0)
(1.10788 0.526135 0)
(1.13134 0.544135 0)
(1.15372 0.550674 0)
(1.00004 0.0127717 0)
(1.00027 0.0380715 0)
(1.00077 0.0633498 0)
(1.00154 0.0888182 0)
(1.0026 0.114664 0)
(1.00402 0.141062 0)
(1.00589 0.16817 0)
(1.00833 0.196129 0)
(1.01151 0.225054 0)
(1.01561 0.25503 0)
(1.02088 0.286091 0)
(1.02762 0.318187 0)
(1.03616 0.351145 0)
(1.04686 0.38459 0)
(1.06004 0.417868 0)
(1.07594 0.449938 0)
(1.0945 0.479306 0)
(1.11527 0.504019 0)
(1.13715 0.521843 0)
(1.15829 0.53067 0)
(1.00006 0.012593 0)
(1.00043 0.0375609 0)
(1.00125 0.0625102 0)
(1.00248 0.0876308 0)
(1.00413 0.113088 0)
(1.00624 0.139032 0)
(1.00888 0.165592 0)
(1.01213 0.192877 0)
(1.01614 0.220966 0)
(1.02106 0.249901 0)
(1.0271 0.279674 0)
(1.0345 0.310198 0)
(1.04353 0.341276 0)
(1.05446 0.372545 0)
(1.06754 0.403423 0)
(1.08288 0.433042 0)
(1.10042 0.460211 0)
(1.11973 0.483435 0)
(1.13996 0.501048 0)
(1.15971 0.511479 0)
(1.00008 0.0123386 0)
(1.00058 0.0368211 0)
(1.00169 0.0612978 0)
(1.00334 0.085945 0)
(1.00552 0.110911 0)
(1.00824 0.136323 0)
(1.01154 0.162284 0)
(1.01548 0.188872 0)
(1.02017 0.216133 0)
(1.02574 0.244074 0)
(1.03235 0.272654 0)
(1.04019 0.30176 0)
(1.04947 0.331181 0)
(1.06039 0.360579 0)
(1.07311 0.389439 0)
(1.08771 0.417038 0)
(1.10409 0.442424 0)
(1.12189 0.464442 0)
(1.14045 0.481824 0)
(1.15871 0.493371 0)
(1.00009 0.0120142 0)
(1.00072 0.0358697 0)
(1.0021 0.0597439 0)
(1.00415 0.0838085 0)
(1.0068 0.108198 0)
(1.01006 0.13302 0)
(1.01393 0.158351 0)
(1.01845 0.184242 0)
(1.0237 0.210708 0)
(1.02976 0.237726 0)
(1.03676 0.265229 0)
(1.04485 0.293084 0)
(1.05418 0.32108 0)
(1.06489 0.348899 0)
(1.07709 0.376091 0)
(1.09083 0.402049 0)
(1.10598 0.426006 0)
(1.12226 0.447053 0)
(1.13915 0.464208 0)
(1.15586 0.476537 0)
(1.00011 0.0116213 0)
(1.00087 0.0347132 0)
(1.00251 0.0578661 0)
(1.00493 0.0812551 0)
(1.00803 0.105004 0)
(1.01176 0.129199 0)
(1.01612 0.153893 0)
(1.02112 0.179106 0)
(1.02679 0.204829 0)
(1.03321 0.231011 0)
(1.04046 0.257565 0)
(1.04864 0.284345 0)
(1.05787 0.31114 0)
(1.06823 0.337656 0)
(1.07981 0.363494 0)
(1.0926 0.388142 0)
(1.1065 0.410971 0)
(1.12128 0.431254 0)
(1.13653 0.448213 0)
(1.15166 0.461097 0)
(1.00013 0.0111545 0)
(1.00103 0.033344 0)
(1.00295 0.0556655 0)
(1.00574 0.0783039 0)
(1.00925 0.101369 0)
(1.01341 0.124924 0)
(1.01819 0.148993 0)
(1.02356 0.173569 0)
(1.02956 0.198615 0)
(1.03621 0.22406 0)
(1.04358 0.249798 0)
(1.05173 0.275675 0)
(1.06073 0.301484 0)
(1.07066 0.326949 0)
(1.08153 0.351716 0)
(1.09335 0.375344 0)
(1.10601 0.397308 0)
(1.11932 0.417012 0)
(1.13297 0.433822 0)
(1.14652 0.447123 0)
(1.00016 0.0106014 0)
(1.00122 0.0317417 0)
(1.00346 0.0531333 0)
(1.00662 0.0749689 0)
(1.01052 0.0973348 0)
(1.01506 0.12026 0)
(1.02017 0.143738 0)
(1.02584 0.167732 0)
(1.03206 0.192179 0)
(1.03884 0.21699 0)
(1.04622 0.242045 0)
(1.05425 0.267184 0)
(1.06295 0.292205 0)
(1.07237 0.316849 0)
(1.08251 0.340795 0)
(1.09335 0.363658 0)
(1.10481 0.384987 0)
(1.11672 0.40428 0)
(1.12884 0.421006 0)
(1.14084 0.434646 0)
(1.00021 0.0099412 0)
(1.00148 0.0298815 0)
(1.00407 0.0502705 0)
(1.00761 0.0712865 0)
(1.01186 0.0929702 0)
(1.01671 0.115305 0)
(1.02209 0.138244 0)
(1.02796 0.161721 0)
(1.03431 0.185652 0)
(1.04114 0.209931 0)
(1.04846 0.234429 0)
(1.05629 0.258984 0)
(1.06465 0.283396 0)
(1.07354 0.307422 0)
(1.08296 0.330767 0)
(1.09287 0.353085 0)
(1.10319 0.37398 0)
(1.11378 0.393015 0)
(1.12448 0.40973 0)
(1.13502 0.423671 0)
(1.00029 0.00910063 0)
(1.00186 0.0276715 0)
(1.00482 0.0470219 0)
(1.00871 0.0672417 0)
(1.01325 0.0882882 0)
(1.01833 0.110084 0)
(1.02389 0.13254 0)
(1.02987 0.155564 0)
(1.03627 0.179053 0)
(1.04308 0.20289 0)
(1.05028 0.226938 0)
(1.05789 0.251038 0)
(1.0659 0.274993 0)
(1.07429 0.298573 0)
(1.08304 0.321503 0)
(1.09211 0.343464 0)
(1.10141 0.364097 0)
(1.11085 0.38301 0)
(1.12027 0.399789 0)
(1.1295 0.414024 0)
(1.00045 0.00785471 0)
(1.0024 0.0248015 0)
(1.0057 0.0430707 0)
(1.00984 0.0625105 0)
(1.01456 0.0829467 0)
(1.01976 0.104229 0)
(1.02539 0.12623 0)
(1.03142 0.148832 0)
(1.03781 0.17192 0)
(1.04455 0.19537 0)
(1.05163 0.219045 0)
(1.05904 0.242786 0)
(1.06674 0.266403 0)
(1.07471 0.289675 0)
(1.08291 0.312344 0)
(1.09129 0.334111 0)
(1.09978 0.354643 0)
(1.10829 0.373574 0)
(1.11668 0.390522 0)
(1.12484 0.405103 0)
(1.00061 0.00634352 0)
(1.00289 0.0217159 0)
(1.00639 0.0390244 0)
(1.01065 0.0577937 0)
(1.01542 0.0777136 0)
(1.02065 0.098569 0)
(1.02629 0.120198 0)
(1.0323 0.142466 0)
(1.03867 0.165248 0)
(1.04536 0.188418 0)
(1.05235 0.211836 0)
(1.05962 0.235348 0)
(1.06713 0.25877 0)
(1.07485 0.281891 0)
(1.08272 0.304463 0)
(1.0907 0.326203 0)
(1.0987 0.346794 0)
(1.10664 0.365889 0)
(1.11442 0.383124 0)
(1.12193 0.398127 0)
(0.467578 0.220945 0)
(0.296663 0.0865052 0)
(0.195137 0.0345572 0)
(0.143184 0.0148232 0)
(0.115769 0.0070777 0)
(0.09913 0.00386432 0)
(0.0878907 0.00242488 0)
(0.0797615 0.0017026 0)
(0.0735875 0.00128421 0)
(0.0687475 0.00100502 0)
(0.0648888 0.000796637 0)
(0.0617955 0.000628532 0)
(0.0593255 0.000486041 0)
(0.057379 0.000362257 0)
(0.0558785 0.000255279 0)
(0.0547559 0.000167678 0)
(0.053936 0.000107932 0)
(0.0533072 8.99248e-05 0)
(0.0527502 0.000104901 0)
(0.052424 8.1594e-05 0)
(0.794461 0.409411 0)
(0.647634 0.228929 0)
(0.515574 0.12511 0)
(0.420473 0.0714253 0)
(0.354814 0.0436107 0)
(0.308196 0.0286325 0)
(0.274042 0.0200958 0)
(0.248301 0.0148737 0)
(0.228388 0.0114311 0)
(0.212658 0.00899812 0)
(0.20006 0.0071728 0)
(0.189899 0.00573448 0)
(0.181702 0.00455726 0)
(0.175129 0.00356972 0)
(0.169922 0.00273611 0)
(0.165869 0.00204794 0)
(0.162765 0.00152196 0)
(0.160353 0.00119268 0)
(0.158366 0.00103944 0)
(0.157178 0.000889587 0)
(0.94228 0.505338 0)
(0.85151 0.351599 0)
(0.744039 0.236476 0)
(0.647086 0.160063 0)
(0.567708 0.11098 0)
(0.504522 0.0794812 0)
(0.454533 0.0588867 0)
(0.414826 0.0449707 0)
(0.383 0.0351807 0)
(0.357245 0.0279976 0)
(0.336249 0.0225093 0)
(0.319067 0.018159 0)
(0.305015 0.0146023 0)
(0.293578 0.0116299 0)
(0.284362 0.00912384 0)
(0.27704 0.00703547 0)
(0.271319 0.00537251 0)
(0.266835 0.00418028 0)
(0.263184 0.0034474 0)
(0.260964 0.00298629 0)
(1.0284 0.550086 0)
(0.977365 0.434258 0)
(0.900969 0.329542 0)
(0.819129 0.247009 0)
(0.742717 0.185753 0)
(0.675647 0.141438 0)
(0.618533 0.109504 0)
(0.570574 0.0862293 0)
(0.530501 0.0689119 0)
(0.497042 0.0556919 0)
(0.4691 0.0453165 0)
(0.445783 0.0369489 0)
(0.426384 0.0300341 0)
(0.410342 0.0242129 0)
(0.397205 0.0192695 0)
(0.386594 0.0150997 0)
(0.378173 0.0116919 0)
(0.371512 0.00910312 0)
(0.366089 0.00736568 0)
(0.362735 0.00636221 0)
(1.08417 0.568521 0)
(1.05833 0.484114 0)
(1.00815 0.396927 0)
(0.945646 0.319212 0)
(0.880311 0.254962 0)
(0.817711 0.203918 0)
(0.760586 0.164085 0)
(0.709918 0.133085 0)
(0.66571 0.10878 0)
(0.627516 0.0894565 0)
(0.594732 0.073819 0)
(0.566749 0.0609187 0)
(0.543014 0.0500794 0)
(0.523042 0.0408368 0)
(0.506416 0.032896 0)
(0.492775 0.0261041 0)
(0.481789 0.0204342 0)
(0.473004 0.0159672 0)
(0.465815 0.0128157 0)
(0.461298 0.0110126 0)
(1.12135 0.572426 0)
(1.11141 0.511974 0)
(1.08108 0.442783 0)
(1.0367 0.374892 0)
(0.985019 0.313674 0)
(0.931258 0.261126 0)
(0.878876 0.217245 0)
(0.82988 0.181058 0)
(0.785242 0.151279 0)
(0.745288 0.126646 0)
(0.709981 0.106067 0)
(0.679099 0.0886564 0)
(0.65235 0.0737347 0)
(0.629421 0.0608048 0)
(0.610006 0.0495361 0)
(0.593821 0.0397523 0)
(0.580589 0.0314282 0)
(0.569879 0.024689 0)
(0.561038 0.0197645 0)
(0.555399 0.0169155 0)
(1.14613 0.567545 0)
(1.14624 0.525084 0)
(1.1302 0.471895 0)
(1.10085 0.4153 0)
(1.06245 0.360385 0)
(1.01907 0.310027 0)
(0.97402 0.26542 0)
(0.929631 0.226679 0)
(0.887417 0.19334 0)
(0.84826 0.164695 0)
(0.812602 0.139992 0)
(0.78061 0.118539 0)
(0.752281 0.0997514 0)
(0.727521 0.083176 0)
(0.706182 0.068498 0)
(0.688097 0.0555531 0)
(0.673083 0.0443433 0)
(0.660761 0.0350617 0)
(0.650472 0.0280906 0)
(0.643819 0.0239902 0)
(1.16213 0.557347 0)
(1.16854 0.528275 0)
(1.16248 0.488404 0)
(1.14483 0.442752 0)
(1.118 0.395497 0)
(1.08484 0.349563 0)
(1.04806 0.30668 0)
(1.00987 0.267648 0)
(0.971971 0.232638 0)
(0.935527 0.201452 0)
(0.901314 0.173711 0)
(0.869806 0.148974 0)
(0.841266 0.126824 0)
(0.815812 0.106905 0)
(0.793471 0.0889668 0)
(0.774213 0.0728917 0)
(0.757965 0.058736 0)
(0.744426 0.0467842 0)
(0.732965 0.0376005 0)
(0.725464 0.0321041 0)
(1.17164 0.544068 0)
(1.18189 0.524922 0)
(1.18262 0.495757 0)
(1.17372 0.459867 0)
(1.15635 0.420421 0)
(1.13233 0.379987 0)
(1.10367 0.340389 0)
(1.07224 0.30276 0)
(1.03966 0.267681 0)
(1.00717 0.235347 0)
(0.975708 0.20571 0)
(0.945958 0.178587 0)
(0.918376 0.153747 0)
(0.893266 0.130972 0)
(0.870809 0.110106 0)
(0.851108 0.0911047 0)
(0.834205 0.0741029 0)
(0.819887 0.0594957 0)
(0.807574 0.0480503 0)
(0.799429 0.0410854 0)
(1.17628 0.529172 0)
(1.18871 0.51739 0)
(1.19391 0.496665 0)
(1.19132 0.469085 0)
(1.18133 0.436926 0)
(1.16499 0.402263 0)
(1.14367 0.366767 0)
(1.11885 0.331653 0)
(1.09189 0.297713 0)
(1.06398 0.2654 0)
(1.03609 0.234917 0)
(1.009 0.206306 0)
(0.98328 0.179517 0)
(0.959369 0.154475 0)
(0.937571 0.131133 0)
(0.918101 0.109543 0)
(0.901103 0.0899282 0)
(0.886448 0.0728091 0)
(0.873619 0.059166 0)
(0.86506 0.0507364 0)
(1.17723 0.513654 0)
(1.19068 0.507344 0)
(1.19867 0.493199 0)
(1.20046 0.472489 0)
(1.19601 0.446781 0)
(1.18582 0.417659 0)
(1.17078 0.386532 0)
(1.15195 0.354545 0)
(1.13042 0.322552 0)
(1.10723 0.291143 0)
(1.0833 0.260688 0)
(1.0594 0.231397 0)
(1.03617 0.203376 0)
(1.0141 0.176682 0)
(0.993578 0.151381 0)
(0.974911 0.12762 0)
(0.958317 0.105725 0)
(0.943736 0.0863416 0)
(0.930723 0.0706643 0)
(0.921988 0.060846 0)
(1.17537 0.498203 0)
(1.18906 0.495971 0)
(1.19861 0.486919 0)
(1.20329 0.47178 0)
(1.20281 0.45159 0)
(1.19735 0.427504 0)
(1.18742 0.400646 0)
(1.17375 0.372014 0)
(1.15715 0.342425 0)
(1.13849 0.312515 0)
(1.11855 0.282746 0)
(1.09807 0.253441 0)
(1.07766 0.224824 0)
(1.05785 0.197062 0)
(1.03906 0.170324 0)
(1.02164 0.144851 0)
(1.00586 0.121066 0)
(0.991715 0.0997412 0)
(0.978822 0.0822719 0)
(0.97014 0.0712032 0)
(1.17142 0.483303 0)
(1.18478 0.484118 0)
(1.195 0.478995 0)
(1.20141 0.468315 0)
(1.20365 0.452731 0)
(1.20167 0.433055 0)
(1.19574 0.410143 0)
(1.18631 0.384818 0)
(1.17398 0.357812 0)
(1.1594 0.329743 0)
(1.14326 0.301105 0)
(1.12616 0.272288 0)
(1.1087 0.243594 0)
(1.09137 0.215277 0)
(1.0746 0.187591 0)
(1.05874 0.160863 0)
(1.04409 0.135605 0)
(1.03067 0.112705 0)
(1.01815 0.0937411 0)
(1.00973 0.0816081 0)
(1.16594 0.469289 0)
(1.17858 0.472395 0)
(1.18884 0.470297 0)
(1.19612 0.463152 0)
(1.20006 0.451346 0)
(1.20051 0.435424 0)
(1.19757 0.416016 0)
(1.19149 0.393775 0)
(1.1827 0.369326 0)
(1.17168 0.343231 0)
(1.15896 0.315982 0)
(1.14506 0.287992 0)
(1.13049 0.259614 0)
(1.11569 0.231163 0)
(1.10106 0.202959 0)
(1.08695 0.1754 0)
(1.07364 0.149081 0)
(1.06117 0.124989 0)
(1.04924 0.104861 0)
(1.04126 0.0918832 0)
(1.15942 0.456386 0)
(1.17108 0.461228 0)
(1.18092 0.461461 0)
(1.18844 0.457102 0)
(1.19331 0.44835 0)
(1.19534 0.435555 0)
(1.19452 0.419164 0)
(1.191 0.399682 0)
(1.18504 0.377621 0)
(1.177 0.353481 0)
(1.16726 0.32772 0)
(1.15625 0.300756 0)
(1.14438 0.272964 0)
(1.13203 0.2447 0)
(1.11956 0.216334 0)
(1.10727 0.188322 0)
(1.09542 0.161326 0)
(1.08403 0.13642 0)
(1.07285 0.115469 0)
(1.06543 0.101884 0)
(1.15233 0.444735 0)
(1.16284 0.45091 0)
(1.17195 0.452947 0)
(1.17927 0.450771 0)
(1.18449 0.44446 0)
(1.18743 0.43422 0)
(1.18805 0.42036 0)
(1.18639 0.40326 0)
(1.18262 0.383338 0)
(1.17698 0.361021 0)
(1.16975 0.336733 0)
(1.16126 0.310875 0)
(1.15183 0.283831 0)
(1.14177 0.25598 0)
(1.13137 0.227731 0)
(1.12087 0.199583 0)
(1.11052 0.172254 0)
(1.10028 0.146888 0)
(1.08994 0.125445 0)
(1.08317 0.111492 0)
(1.14511 0.434422 0)
(1.15443 0.441637 0)
(1.16265 0.445072 0)
(1.16946 0.444599 0)
(1.17464 0.440211 0)
(1.17801 0.432018 0)
(1.17951 0.420226 0)
(1.17914 0.405119 0)
(1.17701 0.387035 0)
(1.17326 0.366342 0)
(1.16809 0.343422 0)
(1.16173 0.318658 0)
(1.15442 0.292434 0)
(1.1464 0.26514 0)
(1.13788 0.23721 0)
(1.12907 0.209179 0)
(1.12015 0.181808 0)
(1.11105 0.156295 0)
(1.10158 0.134668 0)
(1.09551 0.120581 0)
(1.13831 0.42533 0)
(1.14647 0.433376 0)
(1.15375 0.437905 0)
(1.15993 0.438756 0)
(1.16482 0.435872 0)
(1.1683 0.429292 0)
(1.17029 0.419155 0)
(1.17079 0.405673 0)
(1.16982 0.389125 0)
(1.1675 0.36983 0)
(1.16394 0.348136 0)
(1.15931 0.324407 0)
(1.15375 0.29902 0)
(1.14745 0.272372 0)
(1.14057 0.244912 0)
(1.13324 0.2172 0)
(1.1256 0.190033 0)
(1.11755 0.164649 0)
(1.10892 0.143128 0)
(1.10353 0.129183 0)
(1.1326 0.41695 0)
(1.13978 0.425739 0)
(1.14623 0.431208 0)
(1.15179 0.433174 0)
(1.15633 0.431543 0)
(1.15975 0.426312 0)
(1.16198 0.417569 0)
(1.163 0.40548 0)
(1.16283 0.390278 0)
(1.16151 0.372247 0)
(1.15913 0.351706 0)
(1.15577 0.329001 0)
(1.15155 0.304502 0)
(1.14657 0.278604 0)
(1.14095 0.251766 0)
(1.13478 0.224566 0)
(1.12818 0.197824 0)
(1.121 0.172807 0)
(1.11313 0.151646 0)
(1.10834 0.138184 0)
(1.12903 0.410544 0)
(1.13561 0.420051 0)
(1.14154 0.426379 0)
(1.14669 0.429328 0)
(1.15097 0.428779 0)
(1.1543 0.424699 0)
(1.15663 0.417141 0)
(1.15793 0.406237 0)
(1.15819 0.392187 0)
(1.15744 0.375248 0)
(1.15574 0.355717 0)
(1.15313 0.333926 0)
(1.14968 0.310234 0)
(1.14548 0.28504 0)
(1.14059 0.258802 0)
(1.13512 0.23211 0)
(1.12912 0.205801 0)
(1.12248 0.18116 0)
(1.11524 0.160351 0)
(1.11087 0.147191 0)
)
;

boundaryField
{
    zeroGradPlanes
    {
        type            zeroGradient;
    }
    inlet
    {
        type            fixedValue;
        value           uniform (1 0 0);
    }
    plate
    {
        type            noSlip;
    }
    frontAndBack
    {
        type            empty;
    }
}


// ************************************************************************* //
