/*--------------------------------*- C++ -*----------------------------------*\
| =========                 |                                                 |
| \\      /  F ield         | OpenFOAM: The Open Source CFD Toolbox           |
|  \\    /   O peration     | Version:  v1906                                 |
|   \\  /    A nd           | Web:      www.OpenFOAM.com                      |
|    \\/     M anipulation  |                                                 |
\*---------------------------------------------------------------------------*/
FoamFile
{
    version     2.0;
    format      ascii;
    class       volScalarField;
    location    "0.6";
    object      p;
}
// * * * * * * * * * * * * * * * * * * * * * * * * * * * * * * * * * * * * * //

dimensions      [0 2 -2 0 0 0 0];


internalField   nonuniform List<scalar> 
4800
(
1.05728e-10
-6.76759e-05
-6.55566e-05
7.24796e-05
-1.18746e-05
-5.67332e-05
-3.9693e-05
-0.000116005
-0.000156224
-0.000209166
-0.000272146
-0.000265144
-0.000255887
-0.000225462
-0.000174947
-3.94372e-05
0.00017444
0.000593418
0.00123854
0.00186993
2.98091e-06
-7.18249e-05
-6.53395e-05
6.04604e-05
-8.33255e-06
-6.07867e-05
-3.39897e-05
-0.000119684
-0.000148525
-0.000210642
-0.000256472
-0.000265361
-0.000253926
-0.000225966
-0.0001732
-4.62767e-05
0.000187071
0.000545297
0.00103726
0.00153175
3.88363e-06
-7.41725e-05
-6.49537e-05
5.56354e-05
-7.82029e-06
-6.23622e-05
-3.19455e-05
-0.000120393
-0.000144606
-0.000207322
-0.000252031
-0.000262101
-0.00025327
-0.000223238
-0.000175183
-6.22722e-05
0.000122958
0.000431307
0.00084351
0.00126606
6.05522e-06
-7.75882e-05
-6.49628e-05
4.74507e-05
-7.00685e-06
-6.24759e-05
-3.18486e-05
-0.000117326
-0.000145604
-0.000196931
-0.000250238
-0.000254653
-0.000251443
-0.000221472
-0.00018015
-8.69634e-05
6.61869e-05
0.000293289
0.000654488
0.00104361
7.60115e-06
-8.03883e-05
-6.58903e-05
4.21427e-05
-7.68838e-06
-6.11797e-05
-3.38115e-05
-0.000111277
-0.000148336
-0.000188496
-0.00024251
-0.000249213
-0.000248524
-0.00022265
-0.000198755
-0.000143287
-4.41014e-05
0.00015704
0.000473466
0.000834082
8.69877e-06
-8.24787e-05
-6.75066e-05
3.66664e-05
-1.09118e-05
-5.6961e-05
-3.85451e-05
-0.000103306
-0.000145063
-0.000184836
-0.000228734
-0.000241815
-0.000249743
-0.000233148
-0.000238575
-0.000237948
-0.000148373
2.9153e-05
0.000301675
0.000630117
9.092e-06
-8.29753e-05
-7.10352e-05
3.33846e-05
-1.75299e-05
-5.2767e-05
-3.91429e-05
-0.000101195
-0.000134257
-0.000179237
-0.000219698
-0.000232695
-0.00025683
-0.000263248
-0.000303332
-0.000330753
-0.000254133
-9.70533e-05
0.000132869
0.000426733
8.14714e-06
-8.15652e-05
-7.55579e-05
3.05924e-05
-2.13126e-05
-5.18584e-05
-3.39029e-05
-0.000101581
-0.000126242
-0.00016443
-0.000214849
-0.000229089
-0.000272666
-0.000317772
-0.000378404
-0.000421789
-0.000363133
-0.000225375
-3.38924e-05
0.000223715
5.63988e-06
-7.73435e-05
-8.05861e-05
2.57754e-05
-2.17745e-05
-5.48742e-05
-2.58643e-05
-9.54033e-05
-0.000123869
-0.000147531
-0.000208576
-0.000239917
-0.000305903
-0.00038304
-0.000453542
-0.000511359
-0.000476348
-0.000360227
-0.000201802
2.11201e-05
1.54458e-06
-7.14343e-05
-8.36497e-05
1.77046e-05
-1.85177e-05
-5.80512e-05
-2.23016e-05
-8.11313e-05
-0.000119863
-0.000139377
-0.00020145
-0.000263498
-0.000359904
-0.000452324
-0.000528921
-0.000600863
-0.000593107
-0.000502561
-0.000372855
-0.000179111
-4.03969e-06
-6.65609e-05
-8.29423e-05
7.10872e-06
-1.09542e-05
-5.60814e-05
-2.49184e-05
-6.64951e-05
-0.000108405
-0.000141132
-0.000210237
-0.000295092
-0.000418418
-0.000526894
-0.00060875
-0.000692324
-0.00071273
-0.00065212
-0.000548407
-0.000377156
-1.07389e-05
-6.34419e-05
-7.7532e-05
-3.30489e-06
-1.33309e-05
-4.75639e-05
-2.52491e-05
-5.95311e-05
-9.22886e-05
-0.000142765
-0.000241423
-0.000335987
-0.000470032
-0.000601642
-0.000695533
-0.000787965
-0.000835262
-0.000808019
-0.000728352
-0.000573705
-1.74717e-05
-6.29826e-05
-6.92285e-05
-8.46842e-06
-2.49466e-05
-3.82299e-05
-1.79403e-05
-6.1533e-05
-8.92861e-05
-0.000142934
-0.000278193
-0.000395958
-0.000527609
-0.00067434
-0.000786806
-0.000889541
-0.000961322
-0.000967182
-0.000910755
-0.0007692
-2.36362e-05
-6.52227e-05
-6.24691e-05
-5.40053e-06
-3.55527e-05
-3.89864e-05
-2.3154e-06
-6.02335e-05
-0.000104663
-0.000152872
-0.000309459
-0.000458573
-0.000595189
-0.000749082
-0.000881779
-0.00099979
-0.00109211
-0.00112658
-0.00109411
-0.000965674
-2.90874e-05
-6.90951e-05
-6.03715e-05
5.98266e-06
-3.70602e-05
-5.18518e-05
4.54864e-06
-5.13658e-05
-0.000129519
-0.000184298
-0.000334898
-0.000514667
-0.000667894
-0.000827878
-0.000980447
-0.00111833
-0.0012287
-0.00128627
-0.00127691
-0.00116338
-3.43963e-05
-7.19595e-05
-6.43795e-05
1.61102e-05
-2.35629e-05
-6.81392e-05
-7.85353e-06
-3.92275e-05
-0.000149199
-0.000234418
-0.000377796
-0.000566965
-0.000739522
-0.000909744
-0.00108128
-0.0012415
-0.00137053
-0.00144766
-0.00145837
-0.00136008
-4.06301e-05
-7.25877e-05
-7.15302e-05
1.83343e-05
4.54862e-06
-7.16112e-05
-4.19621e-05
-5.11329e-05
-0.000158349
-0.000277911
-0.00043485
-0.000627068
-0.000813605
-0.000995661
-0.00118415
-0.00136787
-0.00151671
-0.00161134
-0.00163869
-0.0015534
-4.7951e-05
-7.20243e-05
-7.57403e-05
1.03886e-05
2.46935e-05
-5.65426e-05
-7.70992e-05
-9.52491e-05
-0.000182047
-0.000308149
-0.000487098
-0.000695626
-0.000894189
-0.00108675
-0.00128993
-0.00149711
-0.00166623
-0.00177706
-0.00181805
-0.00174254
-5.61405e-05
-7.18623e-05
-7.57596e-05
-6.46063e-06
3.11027e-05
-2.90572e-05
-9.51907e-05
-0.000155656
-0.000238158
-0.00034701
-0.000526838
-0.000756292
-0.000978819
-0.00118366
-0.00139868
-0.00162748
-0.00181871
-0.00194537
-0.00199728
-0.00192813
-6.41337e-05
-7.37124e-05
-7.22366e-05
-1.92105e-05
2.09269e-05
-1.39436e-05
-9.25754e-05
-0.000205132
-0.000320544
-0.000414636
-0.000571443
-0.000805251
-0.00105573
-0.00128406
-0.00150977
-0.00175652
-0.00197228
-0.00211614
-0.00217772
-0.00211214
-7.13555e-05
-7.77208e-05
-6.99047e-05
-2.84817e-05
-1.7899e-06
-2.08185e-05
-8.75736e-05
-0.00022906
-0.00039568
-0.000513054
-0.000643763
-0.000856505
-0.00112161
-0.00137846
-0.00162056
-0.00188277
-0.00212275
-0.00228539
-0.00235841
-0.00229679
-7.78357e-05
-8.2996e-05
-7.2526e-05
-3.4667e-05
-2.454e-05
-5.1422e-05
-0.000102775
-0.000240246
-0.000446336
-0.000610343
-0.000745452
-0.000931461
-0.00118736
-0.00146439
-0.00172751
-0.00200337
-0.00226472
-0.00244814
-0.00253507
-0.00248106
-8.42367e-05
-8.8723e-05
-8.10037e-05
-4.61916e-05
-4.47087e-05
-8.93812e-05
-0.000142482
-0.000260985
-0.000473853
-0.000686498
-0.000855003
-0.0010326
-0.00127085
-0.00155003
-0.00182789
-0.00211602
-0.00239522
-0.00260066
-0.00270347
-0.00265916
-9.15913e-05
-9.51559e-05
-9.26702e-05
-6.51504e-05
-6.67303e-05
-0.000126828
-0.000198509
-0.00030279
-0.000501571
-0.000738761
-0.000949267
-0.00114532
-0.00137416
-0.00164778
-0.00192879
-0.00222008
-0.00251327
-0.00273947
-0.00285821
-0.00282473
-0.000100335
-0.000103212
-0.000106514
-9.27746e-05
-9.77972e-05
-0.000163836
-0.000255898
-0.000365589
-0.000544607
-0.000780838
-0.0010227
-0.00124864
-0.00148752
-0.00175803
-0.0020401
-0.00232497
-0.00261882
-0.00286105
-0.00299558
-0.00297464
-0.000111315
-0.00011423
-0.000122749
-0.000125101
-0.000138974
-0.000205351
-0.000312099
-0.000435854
-0.000605884
-0.000830739
-0.00108109
-0.00133478
-0.00159379
-0.00187259
-0.00215883
-0.002439
-0.00272055
-0.00296613
-0.00311233
-0.0031055
-0.000124895
-0.000129357
-0.000143614
-0.000160688
-0.000188866
-0.000256446
-0.000368502
-0.000505497
-0.000679219
-0.000894106
-0.00114058
-0.0014042
-0.0016846
-0.00197823
-0.0022754
-0.00255824
-0.00282802
-0.00306421
-0.00321146
-0.00321232
-0.000141979
-0.000149579
-0.000169521
-0.000199957
-0.000244163
-0.000317321
-0.000429743
-0.000574046
-0.000754022
-0.000968111
-0.00120925
-0.00146976
-0.0017583
-0.00206772
-0.00237762
-0.00267155
-0.00293748
-0.00316146
-0.00330079
-0.00329914
-0.000163386
-0.000175546
-0.000202098
-0.00024337
-0.000302875
-0.00038575
-0.000499621
-0.000643614
-0.000826883
-0.00104418
-0.00128457
-0.0015403
-0.00182266
-0.00213797
-0.00246099
-0.00276599
-0.00303684
-0.00325445
-0.00338555
-0.00337635
-0.000190135
-0.000207353
-0.000241997
-0.000292349
-0.000364459
-0.000458452
-0.000576663
-0.000719132
-0.000899813
-0.00111708
-0.00135959
-0.0016146
-0.00188714
-0.00219287
-0.0025219
-0.00283769
-0.00311474
-0.00333278
-0.00345972
-0.0034452
-0.000223267
-0.000245399
-0.000288514
-0.000347632
-0.000429798
-0.000533714
-0.000658684
-0.000801302
-0.000976074
-0.0011885
-0.00142913
-0.00168464
-0.00195279
-0.00224182
-0.00256098
-0.00288287
-0.00316641
-0.00338618
-0.00351172
-0.00349656
-0.000263279
-0.000290085
-0.000341591
-0.000409423
-0.000499293
-0.000611181
-0.00074376
-0.000888564
-0.00105694
-0.00126094
-0.00149572
-0.00174604
-0.00201141
-0.00228884
-0.00258552
-0.00289884
-0.00318655
-0.00340839
-0.00353333
-0.00351964
-0.000310599
-0.000341431
-0.00040016
-0.000476814
-0.000573754
-0.000691472
-0.00082987
-0.000979058
-0.00114345
-0.00133567
-0.0015611
-0.0018018
-0.00205709
-0.00232664
-0.00260156
-0.00289003
-0.00316992
-0.00339096
-0.00351619
-0.00350558
-0.000364626
-0.000399277
-0.000463905
-0.000548783
-0.000652487
-0.000774701
-0.000917012
-0.00107027
-0.00123407
-0.00141491
-0.00162569
-0.00185437
-0.0020927
-0.00234717
-0.00260471
-0.00286232
-0.00311782
-0.00332908
-0.0034525
-0.00344687
-0.000424265
-0.000462748
-0.000532042
-0.000623644
-0.000734122
-0.000860412
-0.00100533
-0.00116108
-0.00132595
-0.00149928
-0.00169288
-0.00190424
-0.00212087
-0.00234889
-0.00258466
-0.00281226
-0.00303309
-0.00322408
-0.00334186
-0.00334398
-0.000487704
-0.000529813
-0.000603182
-0.000700149
-0.000816823
-0.000947303
-0.00109408
-0.00125057
-0.00141561
-0.00158547
-0.00176568
-0.00195745
-0.00215033
-0.00234156
-0.00253854
-0.00272835
-0.00290648
-0.00306419
-0.0031693
-0.00318389
-0.000552301
-0.000597847
-0.000674903
-0.000776079
-0.000897983
-0.00103307
-0.00118193
-0.00133804
-0.00150058
-0.00166546
-0.00183557
-0.00201435
-0.00219481
-0.00236412
-0.00252291
-0.00266315
-0.00277486
-0.00285853
-0.0029051
-0.00289657
-0.000614547
-0.000663028
-0.000743284
-0.00084791
-0.000974171
-0.0011137
-0.00126579
-0.00142296
-0.00158334
-0.00174033
-0.00189175
-0.00203787
-0.00218154
-0.00231826
-0.00244999
-0.00257741
-0.00269113
-0.00278265
-0.00284175
-0.00285227
-0.000670674
-0.000720848
-0.000803196
-0.000910041
-0.00103895
-0.00118149
-0.00133615
-0.00149488
-0.0016553
-0.00181139
-0.00196092
-0.0020999
-0.00222657
-0.00233375
-0.00241638
-0.00247517
-0.00251037
-0.00252351
-0.00251927
-0.0025022
-0.000719796
-0.00077401
-0.000860093
-0.000970748
-0.00110387
-0.00125114
-0.00141058
-0.0015735
-0.00173676
-0.0018928
-0.00203792
-0.00216566
-0.00227255
-0.00235373
-0.00240488
-0.0024259
-0.0024216
-0.00239843
-0.00236672
-0.00234002
0.00262801
0.00283624
0.00278182
0.0027322
0.00266704
0.00249684
0.00221874
0.0018888
0.00155092
0.00120266
0.000840839
0.000478293
0.00011672
-0.000243726
-0.000616057
-0.000995621
-0.00138946
-0.00181087
-0.00225554
-0.00273873
-0.00327726
-0.00391041
-0.00465182
-0.00545166
-0.0062394
-0.0069396
-0.00750764
-0.00789329
-0.00805847
-0.00800227
-0.00774318
-0.00738702
-0.00703013
-0.00672261
-0.0064964
-0.00631257
-0.00616891
-0.00607865
-0.00604898
-0.00607285
-0.00608591
-0.00612743
-0.00622953
-0.00630497
-0.00634567
-0.00640118
-0.00648849
-0.00658724
-0.00666173
-0.00672352
-0.00679217
-0.0068589
-0.00691515
-0.00700234
-0.00710568
-0.00711369
-0.00711561
-0.00725846
-0.00737497
-0.00735376
-0.0073624
-0.00745057
-0.00752537
-0.00755775
-0.00757581
-0.0076172
-0.00766177
-0.00767934
-0.00770877
-0.00775554
-0.00777056
-0.00778519
-0.00782741
-0.00785131
-0.00785698
-0.00788465
-0.00792085
-0.00793645
-0.00795218
-0.00798158
-0.00800839
-0.00802998
-0.00805284
-0.00808087
-0.00810752
-0.00813348
-0.0081612
-0.0081893
-0.00821797
-0.00824768
-0.00827688
-0.00830818
-0.00833941
-0.00837107
-0.00840427
-0.00843787
-0.0084706
-0.00850566
-0.00854158
-0.00857909
0.00207054
0.00247813
0.00267311
0.00271446
0.00265247
0.00246836
0.00218474
0.00185688
0.00152295
0.00117701
0.000816177
0.000453907
9.2413e-05
-0.000267502
-0.000639371
-0.00101746
-0.001409
-0.00182761
-0.00227002
-0.00275129
-0.00328578
-0.00391256
-0.00464541
-0.00543466
-0.00621104
-0.00689975
-0.00746269
-0.00785323
-0.0080274
-0.00797986
-0.00772625
-0.00737412
-0.00701949
-0.00671369
-0.00648954
-0.00630676
-0.00616365
-0.00607377
-0.00604425
-0.00606888
-0.00608192
-0.00612321
-0.00622616
-0.00630196
-0.00634243
-0.00639811
-0.00648599
-0.00658491
-0.00665925
-0.00672139
-0.00679041
-0.00685705
-0.00691327
-0.00700091
-0.00710477
-0.00711244
-0.00711408
-0.00725764
-0.00737456
-0.0073529
-0.00736154
-0.00745004
-0.00752499
-0.00755736
-0.0075754
-0.00761689
-0.00766158
-0.0076791
-0.00770856
-0.00775547
-0.00777044
-0.00778504
-0.00782738
-0.00785127
-0.00785687
-0.00788458
-0.00792086
-0.00793642
-0.00795213
-0.00798156
-0.00800838
-0.00802997
-0.00805283
-0.00808086
-0.00810752
-0.00813347
-0.0081612
-0.0081893
-0.00821797
-0.00824768
-0.00827688
-0.00830818
-0.00833941
-0.00837107
-0.00840426
-0.00843787
-0.00847059
-0.00850566
-0.00854159
-0.00857911
0.00176361
0.00226409
0.00260512
0.00273668
0.0026842
0.00247634
0.00217073
0.00183327
0.00149743
0.00115151
0.000789737
0.000426369
6.36338e-05
-0.000297719
-0.000670271
-0.00104783
-0.00143637
-0.00185068
-0.00228981
-0.0027696
-0.00330038
-0.00391809
-0.0046346
-0.00539873
-0.00614773
-0.00681082
-0.0073564
-0.00774419
-0.00793106
-0.00790746
-0.00767919
-0.00734596
-0.00700358
-0.00670433
-0.00648461
-0.00630556
-0.00616506
-0.00607641
-0.00604698
-0.00607114
-0.00608398
-0.00612482
-0.00622618
-0.00630083
-0.00634183
-0.00639785
-0.00648497
-0.00658331
-0.00665734
-0.00671911
-0.00678824
-0.00685542
-0.00691128
-0.00699813
-0.00710238
-0.00711085
-0.00711237
-0.0072556
-0.00737244
-0.007351
-0.00736007
-0.00744857
-0.00752335
-0.00755587
-0.00757412
-0.00761579
-0.00766062
-0.00767816
-0.0077077
-0.0077548
-0.00776983
-0.00778447
-0.00782694
-0.00785091
-0.00785654
-0.00788432
-0.00792066
-0.00793624
-0.00795199
-0.00798146
-0.00800828
-0.00802989
-0.00805277
-0.00808083
-0.00810749
-0.00813346
-0.0081612
-0.0081893
-0.00821797
-0.00824769
-0.00827689
-0.00830819
-0.00833942
-0.00837109
-0.00840428
-0.00843788
-0.00847061
-0.00850566
-0.00854168
-0.00857926
0.00151466
0.00204333
0.00247052
0.00268719
0.00267729
0.00247054
0.00214812
0.00179742
0.00145712
0.00111171
0.000750124
0.000386839
2.37623e-05
-0.000338509
-0.000711582
-0.00108823
-0.00147273
-0.00188219
-0.00231731
-0.0027949
-0.00331998
-0.00392375
-0.00461666
-0.00534946
-0.00606782
-0.00670389
-0.00722956
-0.00761348
-0.00781409
-0.00781834
-0.00762022
-0.00731007
-0.00698403
-0.00669333
-0.00647716
-0.00630173
-0.00616394
-0.00607715
-0.00604756
-0.00606995
-0.00608366
-0.00612455
-0.00622237
-0.00629595
-0.00633909
-0.00639537
-0.0064816
-0.00657991
-0.00665286
-0.00671351
-0.00678388
-0.00685231
-0.00690712
-0.00699238
-0.00709708
-0.00710777
-0.00710991
-0.0072513
-0.00736732
-0.00734741
-0.00735766
-0.00744566
-0.00751982
-0.00755271
-0.00757159
-0.00761345
-0.00765837
-0.00767615
-0.00770583
-0.00775306
-0.00776837
-0.00778324
-0.00782576
-0.00784984
-0.00785565
-0.00788351
-0.0079199
-0.00793564
-0.00795154
-0.00798105
-0.00800789
-0.00802956
-0.00805249
-0.00808058
-0.00810728
-0.00813328
-0.00816106
-0.00818919
-0.00821789
-0.00824763
-0.00827686
-0.00830817
-0.00833942
-0.00837109
-0.0084043
-0.0084379
-0.00847065
-0.00850568
-0.00854189
-0.00857957
0.00128341
0.00182161
0.00230089
0.00259237
0.00264708
0.00246458
0.00213547
0.00176969
0.00141962
0.00107135
0.000709093
0.000345036
-1.81432e-05
-0.000380052
-0.000753021
-0.00112875
-0.00150896
-0.00191325
-0.00234387
-0.00281744
-0.00333516
-0.00392123
-0.00458683
-0.00528829
-0.00597725
-0.0065879
-0.00709451
-0.00747356
-0.00768673
-0.00771815
-0.00755163
-0.00726791
-0.00696117
-0.00668022
-0.00646784
-0.00629579
-0.00616067
-0.00607644
-0.00604683
-0.00606756
-0.00608308
-0.00612436
-0.00621804
-0.00629041
-0.00633615
-0.00639285
-0.00647809
-0.00657607
-0.00664741
-0.00670692
-0.0067787
-0.00684842
-0.0069022
-0.00698498
-0.00708963
-0.00710388
-0.00710712
-0.00724508
-0.00735968
-0.00734239
-0.00735442
-0.00744138
-0.00751439
-0.00754783
-0.00756762
-0.00760958
-0.0076547
-0.00767306
-0.00770284
-0.00775005
-0.00776584
-0.00778103
-0.00782353
-0.0078479
-0.00785415
-0.00788208
-0.00791849
-0.00793449
-0.00795064
-0.0079802
-0.0080071
-0.0080289
-0.00805194
-0.00808009
-0.00810684
-0.00813292
-0.00816077
-0.00818894
-0.00821769
-0.00824747
-0.00827675
-0.00830809
-0.00833938
-0.00837106
-0.00840431
-0.0084379
-0.00847072
-0.0085057
-0.00854216
-0.00858003
0.0010604
0.00160359
0.0021211
0.00247265
0.00259536
0.00245502
0.00213245
0.00175272
0.00138768
0.00103242
0.000667719
0.00030169
-6.2682e-05
-0.000424091
-0.000795619
-0.00117115
-0.00154722
-0.00194516
-0.0023702
-0.00283736
-0.00334633
-0.0039134
-0.00455183
-0.00522433
-0.00588425
-0.00646954
-0.00695771
-0.00733096
-0.00755471
-0.00761137
-0.00747671
-0.00722145
-0.0069358
-0.0066662
-0.0064584
-0.00628965
-0.0061568
-0.00607488
-0.0060459
-0.00606545
-0.00608246
-0.00612414
-0.00621368
-0.00628439
-0.00633285
-0.0063904
-0.00647433
-0.00657159
-0.00664145
-0.00669971
-0.00677278
-0.00684403
-0.00689661
-0.00697633
-0.00708104
-0.00709956
-0.00710382
-0.00723756
-0.00735072
-0.0073367
-0.0073506
-0.0074361
-0.0075078
-0.00754198
-0.00756285
-0.00760489
-0.00765027
-0.00766931
-0.00769907
-0.00774618
-0.00776262
-0.00777822
-0.00782069
-0.00784545
-0.00785222
-0.00788015
-0.00791655
-0.00793292
-0.00794938
-0.007979
-0.00800599
-0.00802797
-0.00805116
-0.00807936
-0.0081062
-0.00813237
-0.00816031
-0.00818855
-0.00821737
-0.0082472
-0.00827655
-0.00830793
-0.00833929
-0.00837099
-0.0084043
-0.00843787
-0.00847079
-0.00850571
-0.00854247
-0.0085806
0.000840603
0.00138936
0.00193834
0.0023384
0.0025228
0.0024344
0.00213195
0.00174357
0.00136063
0.000994084
0.00062444
0.000255192
-0.000111855
-0.000474021
-0.000842387
-0.00121668
-0.00158886
-0.00197852
-0.00239642
-0.00285564
-0.00335471
-0.00390346
-0.00451495
-0.00515849
-0.00578881
-0.00634841
-0.00681923
-0.00718667
-0.00741876
-0.00749869
-0.00739596
-0.00717044
-0.00690794
-0.00665124
-0.00644854
-0.00628333
-0.00615223
-0.00607214
-0.0060444
-0.00606279
-0.00608081
-0.00612319
-0.00620885
-0.00627769
-0.00632919
-0.00638791
-0.00647007
-0.0065665
-0.00663499
-0.00669176
-0.00676622
-0.00683914
-0.00689025
-0.00696684
-0.00707183
-0.00709477
-0.00709995
-0.00722932
-0.00734114
-0.00733053
-0.00734621
-0.00743019
-0.00750062
-0.00753563
-0.00755763
-0.0075997
-0.0076453
-0.00766507
-0.00769487
-0.00774191
-0.00775904
-0.00777504
-0.00781742
-0.00784263
-0.00785
-0.00787796
-0.00791435
-0.00793113
-0.00794792
-0.00797758
-0.00800467
-0.00802688
-0.00805022
-0.0080785
-0.00810543
-0.0081317
-0.00815975
-0.00818805
-0.00821697
-0.00824687
-0.0082763
-0.00830772
-0.00833917
-0.00837088
-0.00840428
-0.00843782
-0.00847087
-0.00850572
-0.00854275
-0.00858124
0.000621441
0.00117735
0.00175557
0.00219639
0.0024319
0.0023976
0.00212479
0.00173591
0.00133602
0.00095472
0.000578105
0.000205155
-0.000164637
-0.00052906
-0.000894079
-0.00126406
-0.00163243
-0.00201282
-0.00242183
-0.00287244
-0.00336014
-0.00389134
-0.0044756
-0.0050883
-0.00568971
-0.00622569
-0.00668111
-0.00704234
-0.00728003
-0.00738086
-0.00730878
-0.00711336
-0.00687571
-0.00663344
-0.00643686
-0.00627589
-0.00614671
-0.00606834
-0.0060416
-0.00605902
-0.00607851
-0.0061217
-0.00620341
-0.00627054
-0.0063253
-0.00638501
-0.00646511
-0.0065607
-0.00662798
-0.00668326
-0.00675898
-0.00683358
-0.00688339
-0.00695681
-0.0070619
-0.00708942
-0.00709574
-0.00722061
-0.00733095
-0.00732382
-0.00734139
-0.00742388
-0.00749298
-0.00752878
-0.00755196
-0.00759407
-0.0076399
-0.00766052
-0.00769038
-0.00773729
-0.00775511
-0.00777155
-0.00781387
-0.00783956
-0.00784759
-0.00787557
-0.00791196
-0.00792916
-0.00794629
-0.00797601
-0.00800322
-0.00802567
-0.00804919
-0.00807754
-0.00810459
-0.00813096
-0.00815912
-0.0081875
-0.00821652
-0.00824648
-0.00827602
-0.00830749
-0.00833903
-0.00837076
-0.00840426
-0.00843776
-0.00847095
-0.00850572
-0.00854302
-0.00858191
0.000402928
0.000967934
0.00157497
0.0020501
0.00232492
0.0023404
0.00210522
0.00172591
0.00131404
0.000916147
0.000530435
0.000153602
-0.000218743
-0.000586882
-0.000951008
-0.00131418
-0.00167675
-0.00204809
-0.00244697
-0.00288787
-0.00336265
-0.00387612
-0.00443321
-0.00501402
-0.00558826
-0.00610374
-0.00654389
-0.00689722
-0.00713818
-0.00725634
-0.00721321
-0.00704881
-0.00683755
-0.00661243
-0.00642365
-0.00626753
-0.00614137
-0.00606415
-0.00603741
-0.00605427
-0.00607561
-0.00611932
-0.00619704
-0.00626264
-0.00632074
-0.00638163
-0.00645964
-0.00655436
-0.00662069
-0.00667421
-0.00675073
-0.00682752
-0.00687652
-0.0069462
-0.00705101
-0.00708368
-0.00709141
-0.00721134
-0.00732002
-0.00731665
-0.00733625
-0.00741709
-0.00748475
-0.00752143
-0.00754591
-0.00758808
-0.00763414
-0.00765561
-0.0076855
-0.00773226
-0.00775088
-0.00776784
-0.00781009
-0.00783626
-0.00784496
-0.00787297
-0.00790937
-0.00792703
-0.00794454
-0.00797431
-0.00800166
-0.00802436
-0.00804808
-0.0080765
-0.00810366
-0.00813016
-0.00815845
-0.0081869
-0.00821603
-0.00824606
-0.00827571
-0.00830722
-0.00833888
-0.00837062
-0.00840423
-0.0084377
-0.00847102
-0.00850574
-0.00854326
-0.00858262
0.000187967
0.000760804
0.00139395
0.00189911
0.00220555
0.0022647
0.00207175
0.00171098
0.0012936
0.000879384
0.000482198
0.00010082
-0.000274124
-0.000646024
-0.0010124
-0.00136905
-0.00172183
-0.00208413
-0.00247258
-0.00290177
-0.00336203
-0.00385648
-0.00438745
-0.00493731
-0.00548527
-0.00598185
-0.00640591
-0.00675035
-0.00699308
-0.00712518
-0.00711035
-0.00697796
-0.00679415
-0.00658879
-0.00640922
-0.00625821
-0.00613568
-0.00605896
-0.00603158
-0.00604808
-0.00607127
-0.00611593
-0.00619015
-0.00625385
-0.00631542
-0.00637823
-0.00645408
-0.00654755
-0.00661286
-0.00666428
-0.00674165
-0.00682135
-0.00686961
-0.00693478
-0.0070391
-0.00707751
-0.00708689
-0.00720143
-0.00730835
-0.00730906
-0.00733069
-0.0074097
-0.00747596
-0.00751366
-0.0075395
-0.00758165
-0.00762789
-0.00765027
-0.00768026
-0.00772693
-0.00774639
-0.00776385
-0.007806
-0.00783267
-0.00784211
-0.00787018
-0.0079066
-0.00792475
-0.00794265
-0.00797246
-0.00799996
-0.00802293
-0.00804686
-0.00807538
-0.00810267
-0.00812928
-0.00815771
-0.00818625
-0.00821551
-0.0082456
-0.00827538
-0.00830694
-0.00833871
-0.00837046
-0.00840419
-0.00843763
-0.00847109
-0.00850577
-0.00854347
-0.00858334
-2.27057e-05
0.000554357
0.00120948
0.00174337
0.00207828
0.00217477
0.00202349
0.00168734
0.0012711
0.000843417
0.000433703
4.63696e-05
-0.000331269
-0.000705644
-0.0010763
-0.00142924
-0.00176942
-0.00212011
-0.00249726
-0.00291348
-0.0033579
-0.00383198
-0.00433847
-0.00485991
-0.00538149
-0.00585858
-0.00626728
-0.00660303
-0.00684625
-0.00698991
-0.00700143
-0.00690085
-0.00674494
-0.00656049
-0.00639188
-0.00624673
-0.00612839
-0.0060531
-0.00602525
-0.00604105
-0.00606586
-0.00611198
-0.00618283
-0.00624377
-0.00630888
-0.00637478
-0.0064486
-0.00654006
-0.00660409
-0.00665373
-0.00673218
-0.0068147
-0.0068621
-0.00692266
-0.00702636
-0.00707076
-0.00708203
-0.00719099
-0.00729598
-0.00730087
-0.0073246
-0.00740179
-0.00746665
-0.00750534
-0.00753256
-0.00757473
-0.00762121
-0.00764458
-0.00767468
-0.00772121
-0.00774152
-0.00775953
-0.00780161
-0.00782884
-0.00783905
-0.00786716
-0.00790362
-0.00792228
-0.0079406
-0.00797047
-0.00799814
-0.0080214
-0.00804556
-0.00807416
-0.0081016
-0.00812834
-0.00815692
-0.00818554
-0.00821494
-0.00824511
-0.00827502
-0.00830662
-0.00833854
-0.0083703
-0.00840415
-0.00843756
-0.00847114
-0.0085058
-0.00854365
-0.00858407
-0.000228752
0.000350178
0.00102259
0.00158355
0.00194524
0.00207321
0.00196006
0.00165204
0.00124304
0.000806638
0.000385258
-9.55005e-06
-0.000390505
-0.0007659
-0.00114059
-0.00149284
-0.00182083
-0.00215578
-0.00251905
-0.00292298
-0.00335179
-0.00380419
-0.00428687
-0.00478263
-0.00527739
-0.0057337
-0.00612857
-0.00645606
-0.00669876
-0.00685169
-0.00688613
-0.00681599
-0.00668836
-0.00652641
-0.00637105
-0.00623341
-0.00612066
-0.00604748
-0.00601873
-0.00603326
-0.00605912
-0.00610631
-0.00617405
-0.00623226
-0.0063013
-0.00637144
-0.00644317
-0.00653149
-0.00659444
-0.00664295
-0.00672203
-0.00680705
-0.00685407
-0.00691017
-0.00701287
-0.00706322
-0.00707666
-0.00717997
-0.00728286
-0.00729201
-0.00731798
-0.00739334
-0.00745669
-0.00749639
-0.00752516
-0.00756742
-0.00761407
-0.00763841
-0.00766863
-0.00771505
-0.00773629
-0.00775492
-0.00779694
-0.00782472
-0.00783573
-0.00786389
-0.00790042
-0.00791964
-0.0079384
-0.00796833
-0.00799618
-0.00801974
-0.00804415
-0.00807284
-0.00810044
-0.00812732
-0.00815607
-0.00818477
-0.00821432
-0.00824457
-0.00827463
-0.00830629
-0.00833834
-0.00837013
-0.00840409
-0.0084375
-0.00847117
-0.00850585
-0.00854381
-0.0085848
-0.000431206
0.000149027
0.000834711
0.00141915
0.0018068
0.00196203
0.00188276
0.00160384
0.00120703
0.000767707
0.000336524
-6.63685e-05
-0.000451597
-0.000827214
-0.00120341
-0.00155699
-0.00187594
-0.00219308
-0.00253802
-0.0029296
-0.00334538
-0.00377476
-0.00423229
-0.00470367
-0.00517247
-0.00560841
-0.00599001
-0.0063098
-0.0065509
-0.00671021
-0.00676518
-0.00672353
-0.00662441
-0.00648777
-0.00634699
-0.0062178
-0.00611235
-0.0060409
-0.0060106
-0.00602466
-0.0060512
-0.00609864
-0.00616401
-0.00622017
-0.00629291
-0.00636739
-0.00643691
-0.00652202
-0.00658469
-0.00663203
-0.00671072
-0.00679831
-0.00684563
-0.00689705
-0.00699836
-0.00705491
-0.00707074
-0.00716828
-0.0072691
-0.00728265
-0.00731076
-0.00738419
-0.00744609
-0.00748692
-0.0075173
-0.00755959
-0.00760636
-0.00763176
-0.00766219
-0.00770851
-0.00773072
-0.00774998
-0.00779191
-0.00782029
-0.00783215
-0.00786039
-0.00789698
-0.0079168
-0.00793602
-0.007966
-0.00799405
-0.00801795
-0.00804262
-0.00807142
-0.0080992
-0.00812622
-0.00815515
-0.00818395
-0.00821366
-0.00824399
-0.0082742
-0.00830593
-0.00833812
-0.00836994
-0.00840402
-0.00843743
-0.00847118
-0.00850589
-0.00854396
-0.00858553
-0.000632932
-5.07314e-05
0.00064693
0.00125121
0.00166328
0.00184335
0.00179305
0.00154256
0.00116129
0.000724357
0.000285997
-0.000124268
-0.000513812
-0.000890123
-0.00126487
-0.00162001
-0.0019338
-0.00223359
-0.00255612
-0.00293212
-0.00333719
-0.00374469
-0.00417418
-0.00462097
-0.0050673
-0.00548516
-0.00585301
-0.00616426
-0.00640223
-0.00656596
-0.00664052
-0.00662546
-0.00655312
-0.00644355
-0.00631863
-0.00619761
-0.00610163
-0.00603314
-0.00600139
-0.00601625
-0.0060429
-0.00608912
-0.0061526
-0.00620702
-0.0062827
-0.00636182
-0.00643029
-0.00651278
-0.00657484
-0.00662006
-0.00669781
-0.00678851
-0.00683683
-0.0068833
-0.00698289
-0.00704611
-0.00706445
-0.00715569
-0.00725449
-0.00727278
-0.00730286
-0.00737425
-0.00743495
-0.00747695
-0.00750883
-0.00755117
-0.00759817
-0.00762468
-0.00765529
-0.00770149
-0.00772473
-0.00774469
-0.00778655
-0.00781554
-0.00782828
-0.00785659
-0.00789329
-0.00791375
-0.00793345
-0.0079635
-0.00799178
-0.00801603
-0.00804097
-0.00806988
-0.00809785
-0.00812503
-0.00815415
-0.00818305
-0.00821292
-0.00824337
-0.00827373
-0.00830554
-0.00833787
-0.00836975
-0.00840392
-0.00843737
-0.00847117
-0.00850593
-0.00854409
-0.00858623
-0.000834598
-0.000249407
0.000460134
0.00108171
0.00151461
0.00171802
0.00169172
0.00146785
0.00110492
0.000674534
0.000232754
-0.000183797
-0.000576613
-0.000954535
-0.00132595
-0.00168109
-0.00199283
-0.00227678
-0.00257559
-0.00293
-0.00332332
-0.00371479
-0.0041153
-0.00453573
-0.00496277
-0.00536472
-0.00571837
-0.00601897
-0.00625301
-0.00642062
-0.00651289
-0.00652262
-0.00647371
-0.00639084
-0.0062854
-0.00617323
-0.00608788
-0.00602549
-0.0059922
-0.00600704
-0.00603354
-0.00607779
-0.00613982
-0.00619249
-0.00627024
-0.0063551
-0.00642407
-0.00650307
-0.00656338
-0.00660701
-0.00668437
-0.00677818
-0.00682762
-0.00686881
-0.00696618
-0.0070366
-0.00705783
-0.00714211
-0.00723884
-0.00726251
-0.00729455
-0.00736354
-0.00742303
-0.00746631
-0.00749975
-0.00754222
-0.00758946
-0.00761709
-0.00764791
-0.00769401
-0.00771834
-0.00773899
-0.00778077
-0.00781042
-0.00782412
-0.00785252
-0.00788935
-0.00791048
-0.00793068
-0.00796079
-0.00798931
-0.00801394
-0.00803918
-0.00806822
-0.00809639
-0.00812375
-0.00815306
-0.00818209
-0.00821214
-0.00824271
-0.00827322
-0.00830513
-0.00833758
-0.00836955
-0.00840379
-0.00843731
-0.00847114
-0.00850596
-0.00854421
-0.0085869
-0.00103508
-0.000446339
0.000273888
0.000911332
0.00136174
0.0015862
0.00158061
0.00138032
0.00103765
0.000616581
0.000174784
-0.000246365
-0.000640937
-0.00101948
-0.00138746
-0.00174039
-0.00205037
-0.00232065
-0.00259632
-0.00292462
-0.00330263
-0.00368451
-0.00406014
-0.00445027
-0.00485684
-0.00524541
-0.00558631
-0.0058755
-0.00610477
-0.00627449
-0.00638101
-0.00641493
-0.00638843
-0.00632983
-0.0062472
-0.0061465
-0.00607
-0.00601558
-0.00598236
-0.00599634
-0.00602344
-0.00606613
-0.00612594
-0.00617593
-0.0062553
-0.0063473
-0.00641753
-0.00649177
-0.00655056
-0.00659432
-0.00667111
-0.00676672
-0.00681716
-0.00685328
-0.0069481
-0.00702622
-0.00705115
-0.00712797
-0.00722205
-0.00725158
-0.00728575
-0.00735187
-0.00741012
-0.00745511
-0.00749034
-0.00753279
-0.00758014
-0.00760892
-0.00763996
-0.00768596
-0.00771143
-0.00773291
-0.00777467
-0.00780501
-0.00781966
-0.00784812
-0.00788507
-0.00790693
-0.00792768
-0.00795787
-0.00798666
-0.00801172
-0.00803726
-0.00806643
-0.00809481
-0.00812238
-0.00815189
-0.00818107
-0.00821127
-0.00824199
-0.00827265
-0.00830469
-0.00833726
-0.00836934
-0.00840365
-0.00843723
-0.00847109
-0.00850598
-0.00854433
-0.00858754
-0.00123293
-0.000641018
8.78835e-05
0.000739856
0.00120628
0.00144847
0.00146185
0.00128142
0.000958485
0.000549225
0.000110305
-0.000312791
-0.000707508
-0.00108409
-0.00144887
-0.00179741
-0.00210377
-0.00236389