/*--------------------------------*- C++ -*----------------------------------*\
| =========                 |                                                 |
| \\      /  F ield         | OpenFOAM: The Open Source CFD Toolbox           |
|  \\    /   O peration     | Version:  v1906                                 |
|   \\  /    A nd           | Web:      www.OpenFOAM.com                      |
|    \\/     M anipulation  |                                                 |
\*---------------------------------------------------------------------------*/
FoamFile
{
    version     2.0;
    format      ascii;
    class       surfaceScalarField;
    location    "0.6";
    object      phi;
}
// * * * * * * * * * * * * * * * * * * * * * * * * * * * * * * * * * * * * * //

dimensions      [0 3 -1 0 0 0 0];
oriented        oriented;


internalField   nonuniform List<scalar> 
9440
(
3.88271e-06
2.23958e-08
3.876e-06
-2.03732e-08
3.87741e-06
-2.1849e-08
3.8754e-06
2.67114e-09
3.87832e-06
1.05859e-08
3.87499e-06
-2.43433e-08
3.87706e-06
9.28919e-09
3.87503e-06
-2.54561e-08
3.87764e-06
1.14855e-08
3.87749e-06
-2.58599e-08
3.87901e-06
-2.16324e-09
3.87963e-06
-2.90826e-08
3.88046e-06
-8.4663e-09
3.88126e-06
-2.48061e-08
3.88208e-06
-6.0011e-09
3.88271e-06
-1.67752e-08
3.88213e-06
-1.48148e-09
3.87771e-06
-9.29881e-09
3.86335e-06
2.09499e-08
3.40075e-08
3.84092e-06
4.18438e-06
2.38758e-08
4.18587e-06
-2.18604e-08
4.1815e-06
-1.74793e-08
4.18549e-06
-1.31733e-09
4.18334e-06
1.27281e-08
4.1841e-06
-2.50978e-08
4.18349e-06
9.89947e-09
4.18257e-06
-2.45432e-08
4.18495e-06
9.11018e-09
4.18305e-06
-2.39613e-08
4.18607e-06
-5.18087e-09
4.1828e-06
-2.58159e-08
4.18579e-06
-1.14547e-08
4.18385e-06
-2.28611e-08
4.18662e-06
-8.77593e-09
4.18434e-06
-1.44938e-08
4.18293e-06
-6.98855e-11
4.17154e-06
2.08429e-09
4.16456e-06
2.79329e-08
4.06834e-08
4.15789e-06
4.51875e-06
2.51844e-08
4.51949e-06
-2.26004e-08
4.51673e-06
-1.47131e-08
4.51822e-06
-2.8097e-09
4.51861e-06
1.23359e-08
4.51675e-06
-2.32375e-08
4.51957e-06
7.0857e-09
4.51501e-06
-1.99874e-08
4.5213e-06
2.82354e-09
4.51557e-06
-1.8231e-08
4.52255e-06
-1.21619e-08
4.51566e-06
-1.89317e-08
4.52234e-06
-1.81345e-08
4.51621e-06
-1.67323e-08
4.52188e-06
-1.44416e-08
4.51631e-06
-8.92286e-09
4.51689e-06
-6.52188e-10
4.5048e-06
1.41722e-08
4.5003e-06
3.24328e-08
4.65074e-08
4.49448e-06
4.88149e-06
2.46426e-08
4.87994e-06
-2.10511e-08
4.88014e-06
-1.4912e-08
4.87867e-06
-1.33609e-09
4.88176e-06
9.2403e-09
4.8774e-06
-1.88788e-08
4.8824e-06
2.08303e-09
4.87635e-06
-1.39324e-08
4.88306e-06
-3.88701e-09
4.87803e-06
-1.32033e-08
4.88323e-06
-1.7364e-08
4.88072e-06
-1.64217e-08
4.88391e-06
-2.13179e-08
4.88321e-06
-1.6033e-08
4.88319e-06
-1.44242e-08
4.87841e-06
-4.13781e-09
4.86995e-06
7.80649e-09
4.8636e-06
2.05217e-08
4.86017e-06
3.58627e-08
4.96806e-08
4.857e-06
5.27191e-06
2.33819e-08
5.26916e-06
-1.83084e-08
5.27101e-06
-1.67556e-08
5.26806e-06
1.61686e-09
5.2726e-06
4.69739e-09
5.2671e-06
-1.33765e-08
5.27256e-06
-3.38268e-09
5.26712e-06
-8.48923e-09
5.27226e-06
-9.0279e-09
5.27045e-06
-1.13897e-08
5.27239e-06
-1.93125e-08
5.27394e-06
-1.79653e-08
5.27418e-06
-2.15621e-08
5.27364e-06
-1.54898e-08
5.27039e-06
-1.11749e-08
5.26399e-06
2.25814e-09
5.25693e-06
1.48697e-08
5.25176e-06
2.56921e-08
5.24873e-06
3.88929e-08
5.14181e-08
5.24699e-06
5.69297e-06
2.1871e-08
5.68927e-06
-1.46115e-08
5.69233e-06
-1.98171e-08
5.68867e-06
5.28527e-09
5.69339e-06
-2.26652e-11
5.68864e-06
-8.63438e-09
5.69201e-06
-6.74932e-09
5.69057e-06
-7.04415e-09
5.69133e-06
-9.79034e-09
5.69418e-06
-1.42454e-08
5.69334e-06
-1.84656e-08
5.69493e-06
-1.95594e-08
5.69466e-06
-2.12867e-08
5.69254e-06
-1.33709e-08
5.68621e-06
-4.84404e-09
5.67999e-06
8.47547e-09
5.67507e-06
1.97874e-08
5.67087e-06
2.98951e-08
5.6684e-06
4.13648e-08
5.24783e-08
5.66734e-06
6.14751e-06
2.02301e-08
6.14312e-06
-1.02164e-08
6.14678e-06
-2.34782e-08
6.1433e-06
8.76197e-09
6.1469e-06
-3.61935e-09
6.14454e-06
-6.27247e-09
6.14448e-06
-6.69495e-09
6.14739e-06
-9.95794e-09
6.14552e-06
-7.9171e-09
6.14828e-06
-1.70065e-08
6.14929e-06
-1.94713e-08
6.14854e-06
-1.88091e-08
6.14707e-06
-1.98212e-08
6.14238e-06
-8.67952e-09
6.13536e-06
2.17229e-09
6.13101e-06
1.28329e-08
6.12708e-06
2.37102e-08
6.12367e-06
3.33052e-08
6.1216e-06
4.34351e-08
5.3131e-08
6.12095e-06
6.63826e-06
1.85299e-08
6.63353e-06
-5.48493e-09
6.63679e-06
-2.67368e-08
6.63485e-06
1.07009e-08
6.63597e-06
-4.73631e-09
6.6372e-06
-7.50156e-09
6.63459e-06
-4.08462e-09
6.63772e-06
-1.30958e-08
6.63873e-06
-8.92334e-09
6.63817e-06
-1.64487e-08
6.64016e-06
-2.14586e-08
6.63822e-06
-1.68656e-08
6.63378e-06
-1.53868e-08
6.62856e-06
-3.45716e-09
6.62285e-06
7.88619e-09
6.61887e-06
1.68107e-08
6.61568e-06
2.6893e-08
6.61286e-06
3.61316e-08
6.61113e-06
4.51623e-08
5.35676e-08
6.61069e-06
7.16808e-06
1.68762e-08
7.16361e-06
-1.01394e-09
7.16498e-06
-2.81042e-08
7.1662e-06
9.48389e-09
7.16438e-06
-2.91459e-09
7.16762e-06
-1.07507e-08
7.16599e-06
-2.4527e-09
7.1663e-06
-1.34001e-08
7.16973e-06
-1.23533e-08
7.16854e-06
-1.52587e-08
7.16805e-06
-2.09761e-08
7.16647e-06
-1.52777e-08
7.15989e-06
-8.80773e-09
7.15451e-06
1.92345e-09
7.15008e-06
1.23165e-08
7.14632e-06
2.05625e-08
7.14361e-06
2.96111e-08
7.1413e-06
3.84396e-08
7.13986e-06
4.66051e-08
5.38875e-08
7.13954e-06
7.74012e-06
1.53625e-08
7.73654e-06
2.56455e-09
7.73508e-06
-2.66457e-08
7.73976e-06
4.80112e-09
7.73654e-06
3.08997e-10
7.73891e-06
-1.31204e-08
7.74027e-06
-3.81642e-09
7.73821e-06
-1.13322e-08
7.74076e-06
-1.49082e-08
7.74108e-06
-1.55824e-08
7.73751e-06
-1.73987e-08
7.73378e-06
-1.1549e-08
7.72865e-06
-3.6796e-09
7.72383e-06
6.74295e-09
7.71985e-06
1.62928e-08
7.71642e-06
2.39983e-08
7.71397e-06
3.20546e-08
7.7121e-06
4.03146e-08
7.71089e-06
4.78109e-08
5.41146e-08
7.71067e-06
8.35778e-06
1.40423e-08
8.35571e-06
4.63285e-09
8.35181e-06
-2.27391e-08
8.3575e-06
-8.89439e-10
8.35586e-06
1.94342e-09
8.35536e-06
-1.26219e-08
8.35852e-06
-6.97679e-09
8.35766e-06
-1.04635e-08
8.35669e-06
-1.39404e-08
8.35718e-06
-1.60723e-08
8.35323e-06
-1.34501e-08
8.34747e-06
-5.79393e-09
8.34263e-06
1.16519e-09
8.3391e-06
1.0275e-08
8.33555e-06
1.98443e-08
8.33236e-06
2.71869e-08
8.33013e-06
3.42825e-08
8.32858e-06
4.18608e-08
8.32764e-06
4.8756e-08
5.42277e-08
8.32752e-06
9.02481e-06
1.28805e-08
9.02475e-06
4.6939e-09
9.01918e-06
-1.71741e-08
9.0229e-06
-4.61142e-09
9.02524e-06
-3.95474e-10
9.02233e-06
-9.71008e-09
9.02442e-06
-9.06445e-09
9.02582e-06
-1.18633e-08
9.02306e-06
-1.11783e-08
9.02033e-06
-1.33481e-08
9.01781e-06
-1.09242e-08
9.01253e-06
-5.11913e-10
9.00695e-06
6.74317e-09
9.00361e-06
1.36164e-08
9.00073e-06
2.27172e-08
8.99784e-06
3.00794e-08
8.99577e-06
3.63508e-08
8.99446e-06
4.31774e-08
8.99378e-06
4.94292e-08
5.42176e-08
8.99379e-06
9.74522e-06
1.17601e-08
9.74638e-06
3.53724e-09
9.74112e-06
-1.19148e-08
9.74079e-06
-4.28354e-09
9.74615e-06
-5.75375e-09
9.74464e-06
-8.19454e-09
9.74327e-06
-7.70188e-09
9.74503e-06
-1.36232e-08
9.74358e-06
-9.73066e-09
9.73751e-06
-7.27097e-09
9.73354e-06
-6.95158e-09
9.73044e-06
2.58316e-09
9.72552e-06
1.16665e-08
9.7217e-06
1.74376e-08
9.71919e-06
2.52255e-08
9.71671e-06
3.25546e-08
9.71479e-06
3.82759e-08
9.71365e-06
4.43187e-08
9.71323e-06
4.98487e-08
5.40391e-08
9.7134e-06
1.05233e-05
1.05381e-08
1.05243e-05
2.5117e-09
1.05215e-05
-9.05754e-09
1.05178e-05
-5.92445e-10
1.05223e-05
-1.02276e-08
1.05247e-05
-1.0596e-08
1.05212e-05
-4.24493e-09
1.05198e-05
-1.22239e-08
1.05201e-05
-1.00495e-08
1.05145e-05
-1.68412e-09
1.05079e-05
-3.05886e-10
1.05049e-05
5.55841e-09
1.05016e-05
1.49773e-08
1.04978e-05
2.12461e-08
1.04953e-05
2.77252e-08
1.04932e-05
3.46068e-08
1.04915e-05
4.00167e-08
1.04905e-05
4.53012e-08
1.04903e-05
5.00701e-08
5.36642e-08
1.04907e-05
1.13636e-05
9.11402e-09
1.13636e-05
2.5036e-09
1.13639e-05
-9.33077e-09
1.13592e-05
4.10452e-09
1.13592e-05
-1.02841e-08
1.13643e-05
-1.57025e-08
1.1363e-05
-2.89255e-09
1.13574e-05
-6.59672e-09
1.13559e-05
-8.61418e-09
1.13531e-05
1.12044e-09
1.13466e-05
6.24449e-09
1.13421e-05
1.0057e-08
1.13394e-05
1.76454e-08
1.13363e-05
2.44001e-08
1.13337e-05
3.02687e-08
1.1332e-05
3.63434e-08
1.13305e-05
4.15055e-08
1.13297e-05
4.6113e-08
1.13296e-05
5.01484e-08
5.31175e-08
1.13301e-05
1.22709e-05
7.56343e-09
1.22697e-05
3.6641e-09
1.22716e-05
-1.11716e-08
1.22692e-05
6.50957e-09
1.22644e-05
-5.54679e-09
1.22681e-05
-1.94181e-08
1.22708e-05
-5.56212e-09
1.22646e-05
-4.29752e-10
1.22593e-05
-3.26574e-09
1.22569e-05
3.49633e-09
1.22526e-05
1.06008e-08
1.22476e-05
1.49978e-08
1.22444e-05
2.0881e-08
1.22418e-05
2.70353e-08
1.22394e-05
3.26217e-08
1.22379e-05
3.78496e-08
1.22367e-05
4.26927e-08
1.22361e-05
4.67087e-08
1.22362e-05
5.00921e-08
5.24614e-08
1.22368e-05
1.32504e-05
6.10382e-09
1.32489e-05
5.11935e-09
1.32499e-05
-1.21785e-08
1.32516e-05
4.88238e-09
1.32447e-05
1.27817e-09
1.3243e-05
-1.77223e-08
1.32475e-05
-9.96561e-09
1.32451e-05
1.93985e-09
1.32375e-05
4.31409e-09
1.32331e-05
7.91703e-09
1.32299e-05
1.37527e-08
1.3226e-05
1.89448e-08
1.32225e-05
2.43915e-08
1.32198e-05
2.96864e-08
1.32177e-05
3.47213e-08
1.32164e-05
3.91899e-08
1.32155e-05
4.3574e-08
1.32151e-05
4.70733e-08
1.32154e-05
4.98772e-08
5.17179e-08
1.32161e-05
1.43079e-05
4.93217e-09
1.43072e-05
5.79977e-09
1.4306e-05
-1.09873e-08
1.431e-05
8.96831e-10
1.43054e-05
5.88277e-09
1.42982e-05
-1.04625e-08
1.42992e-05
-1.09638e-08
1.43008e-05
2.91243e-10
1.42956e-05
9.49611e-09
1.42891e-05
1.44327e-08
1.42851e-05
1.77858e-08
1.42821e-05
2.19474e-08
1.42791e-05
2.73533e-08
1.42765e-05
3.23451e-08
1.42745e-05
3.67027e-08
1.42733e-05
4.03995e-08
1.42727e-05
4.41622e-08
1.42725e-05
4.72125e-08
1.4273e-05
4.94517e-08
5.08728e-08
1.42738e-05
1.54498e-05
4.11943e-09
1.54503e-05
5.2893e-09
1.54474e-05
-8.06917e-09
1.54507e-05
-2.4406e-09
1.545e-05
6.64106e-09
1.54412e-05
-1.69591e-09
1.54363e-05
-6.01288e-09
1.54371e-05
-5.16122e-10
1.54365e-05
1.00867e-08
1.54313e-05
1.96355e-08
1.54256e-05
2.34381e-08
1.54223e-05
2.53082e-08
1.542e-05
2.9642e-08
1.54179e-05
3.44672e-08
1.5416e-05
3.85649e-08
1.54149e-05
4.15353e-08
1.54145e-05
4.45336e-08
1.54146e-05
4.71459e-08
1.54152e-05
4.87961e-08
4.98885e-08
1.54162e-05
1.6683e-05
3.56568e-09
1.66843e-05
4.03558e-09
1.66813e-05
-5.06388e-09
1.66817e-05
-2.8833e-09
1.66833e-05
5.08235e-09
1.66771e-05
4.505e-09
1.66683e-05
2.78144e-09
1.66647e-05
3.01698e-09
1.66655e-05
9.36055e-09
1.66638e-05
2.13191e-08
1.66589e-05
2.82652e-08
1.66543e-05
2.99291e-08
1.66519e-05
3.20232e-08
1.66504e-05
3.60237e-08
1.6649e-05
3.99805e-08
1.6648e-05
4.25236e-08
1.66478e-05
4.47353e-08
1.6648e-05
4.69206e-08
1.66488e-05
4.79627e-08
4.87152e-08
1.665e-05
1.80148e-05
3.12299e-09
1.8016e-05
2.87422e-09
1.8014e-05
-3.08176e-09
1.8012e-05
-8.29019e-10
1.80129e-05
4.12542e-09
1.80098e-05
7.6244e-09
1.80018e-05
1.07914e-08
1.79943e-05
1.04788e-08
1.79922e-05
1.1449e-08
1.79929e-05
2.06851e-08
1.79905e-05
3.06565e-08
1.79863e-05
3.41025e-08
1.79829e-05
3.54212e-08
1.79815e-05
3.74613e-08
1.79806e-05
4.09081e-08
1.79798e-05
4.32417e-08
1.79799e-05
4.46548e-08
1.79803e-05
4.64908e-08
1.79812e-05
4.70815e-08
4.7337e-08
1.79826e-05
1.94531e-05
2.66941e-09
1.94536e-05
2.37631e-09
1.94526e-05
-2.01477e-09
1.94498e-05
1.93285e-09
1.94482e-05
5.71299e-09
1.94471e-05
8.78248e-09
1.94416e-05
1.62272e-08
1.94335e-05
1.85743e-08
1.9428e-05
1.70162e-08
1.94272e-05
2.14223e-08
1.94274e-05
3.05267e-08
1.94248e-05
3.66992e-08
1.94216e-05
3.86003e-08
1.94194e-05
3.96561e-08
1.94187e-05
4.15869e-08
1.94183e-05
4.36525e-08
1.94186e-05
4.43979e-08
1.94194e-05
4.5671e-08
1.94204e-05
4.60699e-08
4.58845e-08
1.94218e-05
2.10062e-05
2.24819e-09
2.1006e-05
2.55507e-09
2.10052e-05
-1.11966e-09
2.1003e-05
4.0938e-09
2.09996e-05
9.15093e-09
2.09974e-05
1.09803e-08
2.09948e-05
1.87539e-08
2.09885e-05
2.49472e-08
2.09813e-05
2.41215e-08
2.09782e-05
2.45851e-08
2.0978e-05
3.07158e-08
2.09776e-05
3.71081e-08
2.09753e-05
4.08451e-08
2.09733e-05
4.16949e-08
2.09722e-05
4.26783e-08
2.09719e-05
4.39316e-08
2.09724e-05
4.39116e-08
2.09735e-05
4.46321e-08
2.09748e-05
4.4719e-08
4.43446e-08
2.09763e-05
2.26832e-05
1.9397e-09
2.26827e-05
3.10099e-09
2.26812e-05
3.71528e-10
2.26796e-05
5.66464e-09
2.26759e-05
1.28616e-08
2.26722e-05
1.46738e-08
2.26703e-05
2.06368e-08
2.26666e-05
2.8727e-08
2.26603e-05
3.03648e-08
2.26552e-05
2.97295e-08
2.26536e-05
3.22451e-08
2.26536e-05
3.7172e-08
2.26531e-05
4.13465e-08
2.26515e-05
4.3223e-08
2.26507e-05
4.34837e-08
2.26503e-05
4.43339e-08
2.26506e-05
4.36314e-08
2.2652e-05
4.3296e-08
2.26535e-05
4.32005e-08
4.25005e-08
2.26553e-05
2.4494e-05
1.86778e-09
2.44933e-05
3.79241e-09
2.44912e-05
2.52413e-09
2.44896e-05
7.25583e-09
2.44866e-05
1.58642e-08
2.44821e-05
1.91594e-08
2.44794e-05
2.33696e-08
2.44774e-05
3.07343e-08
2.44729e-05
3.483e-08
2.44678e-05
3.48167e-08
2.44647e-05
3.53251e-08
2.4464e-05
3.78497e-08
2.44643e-05
4.11394e-08
2.4464e-05
4.35146e-08
2.44635e-05
4.39293e-08
2.44636e-05
4.42394e-08
2.44638e-05
4.34547e-08
2.44648e-05
4.22534e-08
2.44665e-05
4.15217e-08
4.03491e-08
2.44687e-05
2.64494e-05
2.0276e-09
2.64486e-05
4.60238e-09
2.6446e-05
5.14727e-09
2.64438e-05
9.4434e-09
2.64415e-05
1.81231e-08
2.64373e-05
2.33661e-08
2.64338e-05
2.68543e-08
2.6432e-05
3.25663e-08
2.64294e-05
3.73889e-08
2.64255e-05
3.8749e-08
2.6422e-05
3.88611e-08
2.64204e-05
3.94102e-08
2.64204e-05
4.11434e-08
2.6421e-05
4.29677e-08
2.64212e-05
4.36588e-08
2.64218e-05
4.36917e-08
2.64223e-05
4.29075e-08
2.64233e-05
4.12455e-08
2.64248e-05
4.00027e-08
3.83157e-08
2.64269e-05
2.85609e-05
2.43519e-09
2.856e-05
5.49845e-09
2.85572e-05
7.92676e-09
2.85545e-05
1.21939e-08
2.85523e-05
2.02741e-08
2.8549e-05
2.67297e-08
2.85452e-05
3.05764e-08
2.8543e-05
3.47833e-08
2.85415e-05
3.89659e-08
2.85389e-05
4.12862e-08
2.85362e-05
4.15878e-08
2.85341e-05
4.15493e-08
2.85337e-05
4.14841e-08
2.85344e-05
4.23104e-08
2.85354e-05
4.26419e-08
2.85365e-05
4.25934e-08
2.85376e-05
4.1794e-08
2.85389e-05
3.99899e-08
2.85405e-05
3.83055e-08
3.64976e-08
2.85424e-05
3.08412e-05
2.95787e-09
3.084e-05
6.61333e-09
3.08373e-05
1.06858e-08
3.08342e-05
1.52878e-08
3.08319e-05
2.25659e-08
3.08293e-05
2.93151e-08
3.0826e-05
3.38398e-08
3.08235e-05
3.72928e-08
3.08221e-05
4.04354e-08
3.08207e-05
4.26193e-08
3.0819e-05
4.3371e-08
3.08174e-05
4.30759e-08
3.08165e-05
4.2438e-08
3.08171e-05
4.16711e-08
3.08183e-05
4.14171e-08
3.08201e-05
4.08781e-08
3.08217e-05
4.01593e-08
3.08233e-05
3.83969e-08
3.08252e-05
3.64149e-08
3.45709e-08
3.08271e-05
3.33035e-05
3.54488e-09
3.33022e-05
7.96879e-09
3.32997e-05
1.31702e-08
3.32965e-05
1.84457e-08
3.3294e-05
2.50619e-08
3.32919e-05
3.14616e-08
3.32894e-05
3.63214e-08
3.3287e-05
3.96858e-08
3.32855e-05
4.19852e-08
3.32846e-05
4.34985e-08
3.32837e-05
4.42218e-08
3.3283e-05
4.37974e-08
3.32825e-05
4.29723e-08
3.32826e-05
4.1569e-08
3.32839e-05
4.00464e-08
3.32857e-05
3.91069e-08
3.32879e-05
3.7937e-08
3.32899e-05
3.64731e-08
3.32919e-05
3.43491e-08
3.23091e-08
3.32942e-05
3.59626e-05
4.09466e-09
3.5961e-05
9.49948e-09
3.59588e-05
1.54031e-08
3.59559e-05
2.13424e-08
3.59534e-05
2.75984e-08
3.59515e-05
3.33705e-08
3.59497e-05
3.81061e-08
3.59479e-05
4.1445e-08
3.59465e-05
4.34333e-08
3.59458e-05
4.4229e-08
3.59455e-05
4.45152e-08
3.59453e-05
4.39485e-08
3.59455e-05
4.28091e-08
3.59458e-05
4.1284e-08
3.59467e-05
3.91185e-08
3.59486e-05
3.71684e-08
3.59509e-05
3.56455e-08
3.59535e-05
3.39341e-08
3.59558e-05
3.20199e-08
2.98495e-08
3.59582e-05
3.8834e-05
4.5636e-09
3.88324e-05
1.10489e-08
3.88305e-05
1.73672e-08
3.88281e-05
2.37392e-08
3.88258e-05
2.98615e-08
3.88241e-05
3.50999e-08
3.88228e-05
3.93999e-08
3.88218e-05
4.2467e-08
3.88208e-05
4.43841e-08
3.88203e-05
4.47937e-08
3.88203e-05
4.44989e-08
3.88205e-05
4.36998e-08
3.88211e-05
4.2205e-08
3.8822e-05
4.04293e-08
3.88229e-05
3.81698e-08
3.88246e-05
3.54919e-08
3.8827e-05
3.32736e-08
3.88297e-05
3.12077e-08
3.88326e-05
2.91675e-08
2.71679e-08
3.88352e-05
4.19347e-05
4.93613e-09
4.19333e-05
1.24109e-08
4.19316e-05
1.90325e-08
4.19298e-05
2.55538e-08
4.19281e-05
3.15916e-08
4.19268e-05
3.63593e-08
4.1926e-05
4.02148e-08
4.19256e-05
4.28981e-08
4.19253e-05
4.46166e-08
4.19252e-05
4.49225e-08
4.19255e-05
4.41828e-08
4.19262e-05
4.30256e-08
4.19271e-05
4.13631e-08
4.19283e-05
3.91386e-08
4.19296e-05
3.68653e-08
4.19312e-05
3.39054e-08
4.19335e-05
3.10367e-08
4.19361e-05
2.85993e-08
4.19391e-05
2.61641e-08
2.40729e-08
4.19422e-05
4.52829e-05
5.20098e-09
4.52819e-05
1.33927e-08
4.52806e-05
2.03185e-08
4.52795e-05
2.66547e-08
4.52786e-05
3.25644e-08
4.52779e-05
3.69701e-08
4.52778e-05
4.0398e-08
4.5278e-05
4.26831e-08
4.52784e-05
4.41735e-08
4.52789e-05
4.44218e-08
4.52796e-05
4.34697e-08
4.52808e-05
4.18202e-08
4.52821e-05
4.00795e-08
4.52837e-05
3.75744e-08
4.52855e-05
3.50076e-08
4.52873e-05
3.21457e-08
4.52895e-05
2.88102e-08
4.52921e-05
2.59967e-08
4.5295e-05
2.32743e-08
2.09687e-08
4.52981e-05
4.88985e-05
5.35114e-09
4.8898e-05
1.38565e-08
4.88973e-05
2.09946e-08
4.88969e-05
2.70278e-08
4.88968e-05
3.26668e-08
4.88971e-05
3.67166e-08
4.88978e-05
3.97203e-08
4.88988e-05
4.16278e-08
4.89001e-05
4.28777e-08
4.89014e-05
4.31858e-08
4.89026e-05
4.22764e-08
4.89042e-05
4.01414e-08
4.89062e-05
3.80855e-08
4.89082e-05
3.55473e-08
4.89106e-05
3.26291e-08
4.89129e-05
2.9893e-08
4.89151e-05
2.65631e-08
4.89177e-05
2.34586e-08
4.89203e-05
2.06525e-08
1.80502e-08
4.89232e-05
5.28027e-05
5.32632e-09
5.28028e-05
1.37468e-08
5.2803e-05
2.0888e-08
5.28034e-05
2.657e-08
5.28043e-05
3.17372e-08
5.28056e-05
3.54874e-08
5.28072e-05
3.80659e-08
5.28094e-05
3.94866e-08
5.28118e-05
4.04571e-08
5.28143e-05
4.07161e-08
5.28163e-05
4.02636e-08
5.2818e-05
3.8456e-08
5.28203e-05
3.57829e-08
5.28227e-05
3.31218e-08
5.28254e-05
2.99266e-08
5.28283e-05
2.69686e-08
5.2831e-05
2.38565e-08
5.28339e-05
2.06064e-08
5.28364e-05
1.80932e-08
1.56117e-08
5.28389e-05
5.70188e-05
5.08366e-09
5.70195e-05
1.30483e-08
5.70205e-05
1.98302e-08
5.7022e-05
2.50917e-08
5.70241e-05
2.96801e-08
5.70265e-05
3.30477e-08
5.70291e-05
3.5413e-08
5.70322e-05
3.64028e-08
5.70358e-05
3.68507e-08
5.70399e-05
3.66421e-08
5.70439e-05
3.62555e-08
5.70469e-05
3.54272e-08
5.70492e-05
3.35599e-08
5.70509e-05
3.14139e-08
5.70523e-05
2.85376e-08
5.7054e-05
2.52056e-08
5.70567e-05
2.11626e-08
5.70597e-05
1.76366e-08
5.70631e-05
1.46445e-08
1.2008e-08
5.70667e-05
6.15714e-05
4.56986e-09
6.15728e-05
1.17355e-08
6.15748e-05
1.77781e-08
6.15774e-05
2.24689e-08
6.15808e-05
2.63563e-08
6.15846e-05
2.92081e-08
6.15887e-05
3.12804e-08
6.15928e-05
3.2365e-08
6.15968e-05
3.2793e-08
6.16011e-05
3.23134e-08
6.16065e-05
3.08879e-08
6.16127e-05
2.92315e-08
6.16192e-05
2.70344e-08
6.16259e-05
2.47622e-08
6.16319e-05
2.24892e-08
6.16369e-05
2.0216e-08
6.16394e-05
1.87351e-08
6.16406e-05
1.63462e-08
6.16413e-05
1.39947e-08
1.18004e-08
6.16415e-05
6.64876e-05
3.77548e-09
6.64896e-05
9.69374e-09
6.64927e-05
1.4689e-08
6.64966e-05
1.86018e-08
6.65012e-05
2.17499e-08
6.65064e-05
2.40074e-08
6.6512e-05
2.56442e-08
6.65179e-05
2.65426e-08
6.65237e-05
2.69931e-08
6.6529e-05
2.6966e-08
6.65331e-05
2.67623e-08
6.65359e-05
2.64956e-08
6.65377e-05
2.52109e-08
6.65392e-05
2.32557e-08
6.65408e-05
2.08906e-08
6.65436e-05
1.74601e-08
6.65476e-05
1.46609e-08
6.65519e-05
1.20227e-08
6.65563e-05
9.6199e-09
7.58828e-09
6.65605e-05
7.17962e-05
2.77508e-09
7.17988e-05
7.07991e-09
7.18028e-05
1.06843e-08
7.18078e-05
1.35369e-08
7.18137e-05
1.58461e-08
7.18203e-05
1.75052e-08
7.18272e-05
1.87336e-08
7.18343e-05
1.94526e-08
7.18414e-05
1.9841e-08
7.18485e-05
1.98362e-08
7.18558e-05
1.9536e-08
7.18634e-05
1.89003e-08
7.18706e-05
1.7968e-08
7.18772e-05
1.66454e-08
7.18829e-05
1.52277e-08
7.18868e-05
1.35739e-08
7.18896e-05
1.18116e-08
7.18916e-05
1.00217e-08
7.1893e-05
8.26188e-09
6.67282e-09
7.18939e-05
7.75289e-05
7.75325e-05
7.75376e-05
7.75438e-05
7.7551e-05
7.75587e-05
7.7567e-05
7.75754e-05
7.7584e-05
7.75924e-05
7.76006e-05
7.76084e-05
7.76156e-05
7.7622e-05
7.76274e-05
7.76318e-05
7.76353e-05
7.76381e-05
7.76401e-05
7.76414e-05
3.77322e-06
6.76956e-08
3.67946e-06
9.37615e-08
3.57991e-06
9.95479e-08
3.48162e-06
9.82923e-08
3.38353e-06
9.8093e-08
3.2844e-06
9.91253e-08
3.18352e-06
1.00881e-07
3.08075e-06
1.02776e-07
2.97616e-06
1.04591e-07
2.86977e-06
1.06382e-07
2.7616e-06
1.08177e-07
2.65152e-06
1.10072e-07
2.53951e-06
1.12015e-07
2.42549e-06
1.14024e-07
2.30941e-06
1.16076e-07
2.19135e-06
1.18055e-07
2.07178e-06
1.19578e-07
1.95136e-06
1.20418e-07
1.83072e-06
1.20642e-07
1.70986e-06
1.20853e-07
1.58908e-06
1.20787e-07
1.46945e-06
1.19622e-07
1.35355e-06
1.15899e-07
1.24453e-06
1.09028e-07
1.14555e-06
9.898e-08
1.0599e-06
8.56443e-08
9.90241e-07
6.96617e-08
9.37501e-07
5.27397e-08
8.99863e-07
3.76377e-08
8.73817e-07
2.60466e-08
8.55847e-07
1.79695e-08
8.42803e-07
1.30445e-08
8.32517e-07
1.02854e-08
8.23462e-07
9.05568e-09
8.14981e-07
8.48085e-09
8.06818e-07
8.16279e-09
7.98405e-07
8.41268e-09
7.89571e-07
8.83482e-09
7.80051e-07
9.51942e-09
7.70112e-07
9.9391e-09
7.60065e-07
1.00473e-08
7.49383e-07
1.06813e-08
7.38499e-07
1.08843e-08
7.28108e-07
1.03914e-08
7.17987e-07
1.01202e-08
7.07813e-07
1.01746e-08
6.97479e-07
1.03338e-08
6.87403e-07
1.00757e-08
6.77863e-07
9.54037e-09
6.68704e-07
9.15913e-09
6.59914e-07
8.78956e-09
6.5156e-07
8.35427e-09
6.43561e-07
7.99917e-09
6.35632e-07
7.92841e-09
6.28474e-07
7.15875e-09
6.22538e-07
5.93602e-09
6.16243e-07
6.29516e-09
6.09381e-07
6.86174e-09
6.03867e-07
5.51367e-09
5.99473e-07
4.39372e-09
5.94807e-07
4.66643e-09
5.90147e-07
4.65952e-09
5.86098e-07
4.04959e-09
5.82739e-07
3.35905e-09
5.7973e-07
3.00886e-09
5.76821e-07
2.90937e-09
5.74321e-07
2.50009e-09
5.72234e-07
2.08643e-09
5.70196e-07
2.03841e-09
5.68434e-07
1.76204e-09
5.67151e-07
1.28262e-09
5.65858e-07
1.2927e-09
5.64649e-07
1.20973e-09
5.63827e-07
8.21166e-10
5.63161e-07
6.66586e-10
5.62421e-07
7.39327e-10
5.61851e-07
5.70967e-10
5.61519e-07
3.31342e-10
5.61182e-07
3.37588e-10
5.60853e-07
3.29034e-10
5.6063e-07
2.2207e-10
5.60491e-07
1.39429e-10
5.60383e-07
1.08052e-10
5.60286e-07
9.69926e-11
5.60256e-07
3.02896e-11
5.60242e-07
1.36113e-11
5.60252e-07
-9.86515e-12
5.60275e-07
-2.34119e-11
5.60308e-07
-3.27459e-11
5.60345e-07
-3.66826e-11
5.6039e-07
-4.47708e-11
5.60413e-07
-2.38327e-11
5.60447e-07
-3.36019e-11
5.60457e-07
-1.03264e-11
5.60454e-07
3.77096e-12
5.60434e-07
1.96547e-11
5.60395e-07
3.89116e-11
5.60326e-07
6.90252e-11
5.60173e-07
1.53255e-10
5.43023e-10
4.16334e-06
6.22379e-08
4.16757e-06
8.95304e-08
4.16244e-06
1.04684e-07
4.15266e-06
1.08068e-07
4.14171e-06
1.09043e-07
4.12976e-06
1.11078e-07
4.11562e-06
1.15018e-07
4.09873e-06
1.19666e-07
4.07883e-06
1.24496e-07
4.05586e-06
1.29355e-07
4.02979e-06
1.3424e-07
4.00036e-06
1.39504e-07
3.96754e-06
1.44839e-07
3.93091e-06
1.50651e-07
3.89045e-06
1.56533e-07
3.84587e-06
1.62633e-07
3.7971e-06
1.68353e-07
3.74427e-06
1.73249e-07
3.68735e-06
1.7756e-07
3.62649e-06
1.81714e-07
3.56147e-06
1.8581e-07
3.49269e-06
1.88393e-07
3.42113e-06
1.87468e-07
3.34814e-06
1.82012e-07
3.27538e-06
1.7174e-07
3.20417e-06
1.5686e-07
3.13662e-06
1.37208e-07
3.07381e-06
1.15551e-07
3.01654e-06
9.49048e-08
2.96493e-06
7.7653e-08
2.91724e-06
6.56673e-08
2.87244e-06
5.78417e-08
2.82956e-06
5.31654e-08
2.78752e-06
5.10968e-08
2.74685e-06
4.91457e-08
2.70722e-06
4.77962e-08
2.66812e-06
4.75108e-08
2.62932e-06
4.76392e-08
2.59035e-06
4.84833e-08
2.55196e-06
4.83363e-08
2.51413e-06
4.78757e-08
2.47593e-06
4.88785e-08
2.43833e-06
4.84845e-08
2.40217e-06
4.65486e-08
2.36648e-06
4.58092e-08
2.33114e-06
4.55168e-08
2.29681e-06
4.46707e-08
2.26315e-06
4.37323e-08
2.23016e-06
4.25334e-08
2.19874e-06
4.05738e-08
2.16871e-06
3.8823e-08
2.13912e-06
3.79382e-08
2.11041e-06
3.67147e-08
2.08348e-06
3.48616e-08
2.05838e-06
3.22536e-08
2.03438e-06
2.99366e-08
2.01081e-06
2.98642e-08
1.98848e-06
2.91919e-08
1.96846e-06
2.55293e-08
1.95e-06
2.28594e-08
1.9321e-06
2.25631e-08
1.91521e-06
2.15489e-08
1.89987e-06
1.93885e-08
1.88605e-06
1.71871e-08
1.87337e-06
1.56842e-08
1.86172e-06
1.45636e-08
1.85122e-06
1.29937e-08
1.8418e-06
1.15068e-08
1.83324e-06
1.06024e-08
1.82565e-06
9.34648e-09
1.81902e-06
7.9148e-09
1.81302e-06
7.29974e-09
1.80773e-06
6.49878e-09
1.80323e-06
5.3163e-09
1.79928e-06
4.61639e-09
1.79577e-06
4.24716e-09
1.79285e-06
3.49343e-09
1.79044e-06
2.7383e-09
1.78832e-06
2.4647e-09
1.7865e-06
2.15068e-09
1.78501e-06
1.70635e-09
1.78382e-06
1.33403e-09
1.78284e-06
1.08523e-09
1.78207e-06
8.67624e-10
1.78151e-06
5.90552e-10
1.78111e-06
4.12399e-10
1.78085e-06
2.54308e-10
1.7807e-06
1.2319e-10
1.78064e-06
2.47061e-11
1.78065e-06
-4.89668e-11
1.78072e-06
-1.09794e-10
1.7808e-06
-1.03018e-10
1.7809e-06
-1.35213e-10
1.78098e-06
-9.14399e-11
1.78105e-06
-6.51376e-11
1.78107e-06
-5.90892e-12
1.78109e-06
2.76262e-11
1.78097e-06
1.88442e-10
1.78093e-06
1.88225e-10
1.29129e-09
4.49624e-06
6.04722e-08
4.50233e-06
8.34501e-08
4.50608e-06
1.00931e-07
4.50578e-06
1.08363e-07
4.50423e-06
1.10596e-07
4.50358e-06
1.11732e-07
4.50361e-06
1.14987e-07
4.50362e-06
1.19653e-07
4.50309e-06
1.2503e-07
4.50177e-06
1.30675e-07
4.49975e-06
1.36256e-07
4.4968e-06
1.42454e-07
4.49297e-06
1.48673e-07
4.48793e-06
1.55684e-07
4.48164e-06
1.62822e-07
4.47395e-06
1.70328e-07
4.46449e-06
1.77808e-07
4.45332e-06
1.84421e-07
4.44012e-06
1.90765e-07
4.42506e-06
1.96769e-07
4.408e-06
2.02872e-07
4.38887e-06
2.07523e-07
4.36779e-06
2.08549e-07
4.34482e-06
2.04987e-07
4.32045e-06
1.96107e-07
4.29464e-06
1.82666e-07
4.26786e-06
1.63988e-07
4.24087e-06
1.42542e-07
4.21427e-06
1.21509e-07
4.18908e-06
1.02841e-07
4.16465e-06
9.0092e-08
4.14059e-06
8.19025e-08
4.11653e-06
7.72304e-08
4.09178e-06
7.58426e-08
4.06688e-06
7.40478e-08
4.04158e-06
7.31019e-08
4.01587e-06
7.32112e-08
3.98972e-06
7.37912e-08
3.96265e-06
7.55568e-08
3.93531e-06
7.56782e-08
3.9076e-06
7.5579e-08
3.87897e-06
7.75167e-08
3.84981e-06
7.7644e-08
3.82063e-06
7.57258e-08
3.791e-06
7.54432e-08
3.76057e-06
7.59427e-08
3.72987e-06
7.53747e-08
3.69881e-06
7.47904e-08
3.66751e-06
7.38311e-08
3.63651e-06
7.15737e-08
3.6056e-06
6.97335e-08
3.57483e-06
6.87061e-08
3.54398e-06
6.75648e-08
3.51327e-06
6.55699e-08
3.48399e-06
6.15327e-08
3.45531e-06
5.86192e-08
3.42592e-06
5.92549e-08
3.39725e-06
5.7863e-08
3.37038e-06
5.24027e-08
3.34451e-06
4.87277e-08
3.31903e-06
4.80424e-08
3.29416e-06
4.64173e-08
3.27051e-06
4.30434e-08
3.24822e-06
3.94723e-08
3.22695e-06
3.69537e-08
3.20694e-06
3.45742e-08
3.18831e-06
3.1621e-08
3.17059e-06
2.92251e-08
3.15386e-06
2.73353e-08
3.13858e-06
2.46256e-08
3.12451e-06
2.19822e-08
3.11143e-06
2.03816e-08
3.09961e-06
1.83258e-08
3.08896e-06
1.59622e-08
3.07915e-06
1.44285e-08
3.07024e-06
1.31579e-08
3.06239e-06
1.1343e-08
3.05544e-06
9.68557e-09
3.0492e-06
8.70829e-09
3.04369e-06
7.65976e-09
3.0389e-06
6.49286e-09
3.03474e-06
5.49066e-09
3.03115e-06
4.68238e-09
3.0281e-06
3.91554e-09
3.02557e-06
3.11769e-09
3.0235e-06
2.48034e-09
3.02185e-06
1.90507e-09
3.02056e-06
1.41732e-09
3.01961e-06
9.76154e-10
3.01892e-06
6.3899e-10
3.0185e-06
3.07213e-10
3.01825e-06
1.48237e-10
3.01819e-06
-7.75483e-11
3.01819e-06
-8.57803e-11
3.01832e-06
-1.97171e-10
3.01839e-06
-7.27295e-11
3.01858e-06
-1.69844e-10
3.01854e-06
2.36907e-10
3.01873e-06
-5.19932e-12
1.76387e-09
4.85733e-06
6.01389e-08
4.8615e-06
7.92782e-08
4.86638e-06
9.60505e-08
4.86802e-06
1.06723e-07
4.86742e-06
1.11195e-07
4.8672e-06
1.11956e-07
4.86785e-06
1.14332e-07
4.86924e-06
1.18261e-07
4.87089e-06
1.23388e-07
4.87234e-06
1.29224e-07
4.8737e-06
1.34894e-07
4.87492e-06
1.41228e-07
4.87608e-06
1.47517e-07
4.87713e-06
1.54639e-07
4.87799e-06
1.61959e-07
4.87879e-06
1.69525e-07
4.87921e-06
1.77386e-07
4.87938e-06
1.84259e-07
4.87912e-06
1.91025e-07
4.87856e-06
1.97323e-07
4.87787e-06
2.03567e-07
4.87678e-06
2.08609e-07
4.87531e-06
2.10024e-07
4.87303e-06
2.0726e-07
4.86993e-06
1.99207e-07
4.86566e-06
1.86939e-07
4.85971e-06
1.69936e-07
4.8525e-06
1.49751e-07
4.84436e-06
1.29654e-07
4.83616e-06
1.11042e-07
4.82812e-06
9.81252e-08
4.81999e-06
9.0037e-08
4.81174e-06
8.54786e-08
4.80296e-06
8.46217e-08
4.7938e-06
8.32071e-08
4.78423e-06
8.26774e-08
4.77428e-06
8.31632e-08
4.76412e-06
8.39441e-08
4.75342e-06
8.6258e-08
4.74238e-06
8.67242e-08
4.731e-06
8.69583e-08
4.71906e-06
8.94542e-08
4.70667e-06
9.00309e-08
4.69396e-06
8.84392e-08
4.68083e-06
8.85759e-08
4.6669e-06
8.98638e-08
4.65236e-06
8.99212e-08
4.63726e-06
8.9886e-08
4.62146e-06
8.96345e-08
4.60528e-06
8.7755e-08
4.58865e-06
8.63636e-08
4.57162e-06
8.57301e-08
4.55425e-06
8.49398e-08
4.53637e-06
8.34443e-08
4.51875e-06
7.91524e-08
4.50122e-06
7.61575e-08
4.48275e-06
7.77237e-08
4.46414e-06
7.64687e-08
4.44618e-06
7.03673e-08
4.42826e-06
6.66435e-08
4.41016e-06
6.6139e-08
4.39208e-06
6.45061e-08
4.37428e-06
6.08348e-08
4.35702e-06
5.67399e-08
4.34007e-06
5.38997e-08
4.32357e-06
5.1075e-08
4.30771e-06
4.74803e-08
4.29208e-06
4.48591e-08
4.27663e-06
4.27846e-08
4.26196e-06
3.92955e-08
4.24811e-06
3.58296e-08
4.23493e-06
3.35592e-08
4.22258e-06
3.06786e-08
4.21091e-06
2.76343e-08
4.19961e-06
2.5728e-08
4.18881e-06
2.39605e-08
4.17884e-06
2.13121e-08
4.16968e-06
1.88432e-08
4.16128e-06
1.71107e-08
4.15362e-06
1.53169e-08
4.14668e-06
1.34348e-08
4.14032e-06
1.18436e-08
4.13452e-06
1.04852e-08
4.12927e-06
9.1698e-09
4.1246e-06
7.78093e-09
4.12048e-06
6.60231e-09
4.11695e-06
5.43568e-09
4.11391e-06
4.45951e-09
4.11141e-06
3.47359e-09
4.10932e-06
2.72796e-09
4.10771e-06
1.91959e-09
4.10641e-06
1.44937e-09
4.10552e-06
8.08451e-10
4.10481e-06
6.28792e-10
4.10447e-06
1.37473e-10
4.10417e-06
2.27512e-10
4.10425e-06
-2.42865e-10
4.10416e-06
3.27617e-10
4.10447e-06
-3.16295e-10
1.8535e-09
5.24703e-06
6.00964e-08
5.25011e-06
7.62078e-08
5.25437e-06
9.17831e-08
5.25727e-06
1.03831e-07
5.25791e-06
1.10551e-07
5.25771e-06
1.12157e-07
5.25805e-06
1.13992e-07
5.25929e-06
1.17023e-07
5.2611e-06
1.21569e-07
5.26291e-06
1.27414e-07
5.26463e-06
1.33174e-07
5.26634e-06
1.39521e-07
5.26805e-06
1.45806e-07
5.26985e-06
1.5284e-07
5.27165e-06
1.60164e-07
5.27367e-06
1.67505e-07
5.27568e-06
1.75369e-07
5.27779e-06
1.8215e-07
5.28001e-06
1.88808e-07
5.28238e-06
1.94949e-07
5.28521e-06
2.00744e-07
5.28823e-06
2.05584e-07
5.2914e-06
2.06851e-07
5.29438e-06
2.04289e-07
5.29684e-06
1.96748e-07
5.29854e-06
1.85232e-07
5.29879e-06