/*--------------------------------*- C++ -*----------------------------------*\
| =========                 |                                                 |
| \\      /  F ield         | OpenFOAM: The Open Source CFD Toolbox           |
|  \\    /   O peration     | Version:  v1906                                 |
|   \\  /    A nd           | Web:      www.OpenFOAM.com                      |
|    \\/     M anipulation  |                                                 |
\*---------------------------------------------------------------------------*/
FoamFile
{
    version     2.0;
    format      ascii;
    class       volVectorField;
    location    "0.6";
    object      U;
}
// * * * * * * * * * * * * * * * * * * * * * * * * * * * * * * * * * * * * * //

dimensions      [0 1 -1 0 0 0 0];


internalField   nonuniform List<vector> 
4800
(
(0.959936 0.000274338 0)
(1.03985 -0.000275634 0)
(0.963073 -0.000248717 0)
(1.03501 1.48337e-05 0)
(0.96719 0.000177377 0)
(1.03159 -0.000402162 0)
(0.96999 0.000171407 0)
(1.0281 -0.000477074 0)
(0.973093 0.000253748 0)
(1.02526 -0.00053964 0)
(0.976157 -2.42316e-05 0)
(1.02224 -0.000714968 0)
(0.978655 -0.000222781 0)
(1.0191 -0.000725605 0)
(0.980686 -0.0001791 0)
(1.01624 -0.000546715 0)
(0.982459 -9.73577e-05 0)
(1.01316 -0.000493005 0)
(0.983271 0.000444939 0)
(1.01004 0.000831694 0)
(0.982283 0.000196627 0)
(1.01545 -0.000198217 0)
(0.985922 -0.000262528 0)
(1.01104 3.37698e-05 0)
(0.989742 0.000141865 0)
(1.00825 -0.000382917 0)
(0.992011 0.000169044 0)
(1.00572 -0.000491422 0)
(0.994063 0.000240091 0)
(1.00411 -0.000627992 0)
(0.995884 -4.83081e-05 0)
(1.00254 -0.00081493 0)
(0.996928 -0.000226493 0)
(1.001 -0.000814793 0)
(0.997413 -0.000191794 0)
(0.999807 -0.000657413 0)
(0.997587 3.9389e-05 0)
(0.998481 -0.000266864 0)
(0.997092 0.0011401 0)
(0.997094 0.00193843 0)
(0.995748 0.000267358 0)
(1.00319 -0.000261499 0)
(0.997081 -0.000153095 0)
(1.00128 -6.24585e-05 0)
(0.99827 0.000200881 0)
(1.00073 -0.000369973 0)
(0.998619 0.000145847 0)
(1.00016 -0.000390053 0)
(0.998977 0.000116242 0)
(1.00007 -0.000413664 0)
(0.999444 -0.0002269 0)
(0.999799 -0.000492513 0)
(0.999424 -0.000439129 0)
(0.999334 -0.000516791 0)
(0.999099 -0.000416951 0)
(0.998979 -0.000347977 0)
(0.99873 -7.56562e-05 0)
(0.998343 0.000412147 0)
(0.997914 0.00139101 0)
(0.997571 0.00239014 0)
(0.999366 0.000251231 0)
(1.00059 -0.000248464 0)
(0.99963 -0.000192679 0)
(0.999758 -1.91552e-05 0)
(0.999866 0.000158472 0)
(0.99989 -0.000346639 0)
(0.999675 8.63669e-05 0)
(0.999781 -0.000317656 0)
(0.999711 -1.93832e-05 0)
(0.999865 -0.000320771 0)
(0.999879 -0.000386545 0)
(0.99978 -0.000430955 0)
(0.999735 -0.000567158 0)
(0.999492 -0.000473798 0)
(0.999399 -0.000486575 0)
(0.999229 -0.000234326 0)
(0.99907 5.52814e-05 0)
(0.998762 0.000698239 0)
(0.998398 0.00160162 0)
(0.998068 0.00252517 0)
(0.999936 0.000239209 0)
(1.00028 -0.000215204 0)
(1.00001 -0.000167557 0)
(0.999666 -1.05883e-05 0)
(1.0001 9.98008e-05 0)
(0.999901 -0.000238372 0)
(0.999842 -1.85092e-05 0)
(0.999838 -0.000169659 0)
(0.999898 -0.000157363 0)
(0.999899 -0.000228305 0)
(0.999954 -0.000421126 0)
(0.999832 -0.000436117 0)
(0.99981 -0.000580154 0)
(0.99961 -0.000460331 0)
(0.999538 -0.000440237 0)
(0.999429 -6.78601e-05 0)
(0.999321 0.000464287 0)
(0.999031 0.00102314 0)
(0.998732 0.00179011 0)
(0.998399 0.00261329 0)
(1 0.000232342 0)
(1.00024 -0.000185547 0)
(1.00007 -0.000226397 0)
(0.999673 4.8708e-05 0)
(1.00014 2.63435e-05 0)
(0.99991 -0.000151764 0)
(0.999882 -0.000111523 0)
(0.99985 -0.000113912 0)
(0.999958 -0.000207724 0)
(0.999896 -0.000294332 0)
(0.999961 -0.000436769 0)
(0.99983 -0.000488287 0)
(0.999832 -0.000609379 0)
(0.999655 -0.000440278 0)
(0.999636 -0.000302627 0)
(0.999567 0.000197609 0)
(0.999488 0.000693126 0)
(0.999211 0.00122167 0)
(0.998975 0.00189844 0)
(0.998647 0.00266583 0)
(1.00001 0.000210304 0)
(1.00022 -0.000137296 0)
(1.00009 -0.000254872 0)
(0.999679 9.80003e-05 0)
(1.00014 -3.33269e-05 0)
(0.999904 -9.89598e-05 0)
(0.999894 -0.000120451 0)
(0.999846 -0.000160108 0)
(0.999972 -0.000146695 0)
(0.999883 -0.00035183 0)
(0.999959 -0.000439446 0)
(0.999814 -0.000471355 0)
(0.999847 -0.000565373 0)
(0.999694 -0.000356515 0)
(0.999722 -3.86481e-05 0)
(0.999673 0.000392542 0)
(0.999623 0.000885242 0)
(0.99936 0.00138865 0)
(0.999176 0.00199314 0)
(0.998865 0.00268972 0)
(1.00001 0.000194068 0)
(1.00021 -8.05458e-05 0)
(1.0001 -0.000311021 0)
(0.999686 0.000141813 0)
(1.00014 -7.7806e-05 0)
(0.999902 -9.62973e-05 0)
(0.999895 -8.85364e-05 0)
(0.999849 -0.000229702 0)
(0.999973 -0.000154318 0)
(0.999857 -0.000345524 0)
(0.999959 -0.000509617 0)
(0.999807 -0.000449569 0)
(0.999866 -0.000503588 0)
(0.999758 -0.000202336 0)
(0.999812 0.000170582 0)
(0.999776 0.00054554 0)
(0.999752 0.00101087 0)
(0.999505 0.00150368 0)
(0.999364 0.00206457 0)
(0.999079 0.00269999 0)
(1.00001 0.000175673 0)
(1.00019 -2.95948e-05 0)
(1.00012 -0.000340439 0)
(0.999697 0.000142583 0)
(1.00013 -5.56895e-05 0)
(0.999903 -0.000149169 0)
(0.99989 -3.23358e-05 0)
(0.999841 -0.000250885 0)
(0.999973 -0.000224965 0)
(0.999835 -0.00032396 0)
(0.999954 -0.000496415 0)
(0.999815 -0.000439664 0)
(0.999903 -0.00034343 0)
(0.99983 -1.45639e-05 0)
(0.999894 0.000346916 0)
(0.999873 0.000688387 0)
(0.999877 0.00111852 0)
(0.999654 0.00160601 0)
(0.999547 0.00214257 0)
(0.999293 0.00272679 0)
(1.00001 0.000159805 0)
(1.00016 1.36824e-05 0)
(1.00012 -0.000337315 0)
(0.999709 9.39247e-05 0)
(1.00011 -1.68272e-05 0)
(0.999906 -0.000198816 0)
(0.999886 -4.73571e-05 0)
(0.999827 -0.000207791 0)
(0.999969 -0.000287551 0)
(0.999818 -0.000336491 0)
(0.999947 -0.000434252 0)
(0.999837 -0.000368572 0)
(0.999956 -0.000178074 0)
(0.999906 0.000141218 0)
(0.999978 0.000494929 0)
(0.999972 0.000819003 0)
(1.00001 0.00121435 0)
(0.999812 0.001688 0)
(0.999731 0.00220671 0)
(0.999502 0.00274666 0)
(1.00002 0.000144658 0)
(1.00014 4.5307e-05 0)
(1.00012 -0.000295843 0)
(0.999724 2.03983e-05 0)
(1.00009 2.94313e-05 0)
(0.999901 -0.00020576 0)
(0.999889 -9.54372e-05 0)
(0.999809 -0.000181061 0)
(0.999956 -0.000283434 0)
(0.999812 -0.000371874 0)
(0.999952 -0.000360171 0)
(0.999866 -0.000211471 0)
(1.00001 -3.95833e-05 0)
(0.999985 0.00025035 0)
(1.00006 0.000605546 0)
(1.00007 0.000929469 0)
(1.00013 0.00129031 0)
(0.999972 0.00174704 0)
(0.999916 0.00224962 0)
(0.999706 0.0027529 0)
(1.00002 0.000131924 0)
(1.00011 5.63988e-05 0)
(1.00012 -0.000230347 0)
(0.999739 -4.90232e-05 0)
(1.00008 2.48552e-05 0)
(0.999889 -0.000160844 0)
(0.999887 -0.000152116 0)
(0.999799 -0.000207205 0)
(0.999937 -0.000228887 0)
(0.999804 -0.000333203 0)
(0.99998 -0.000311511 0)
(0.999904 -6.07317e-05 0)
(1.00006 0.00012179 0)
(1.00006 0.000362481 0)
(1.00016 0.000709047 0)
(1.00017 0.00104154 0)
(1.00026 0.00137837 0)
(1.00014 0.00181452 0)
(1.00011 0.00229552 0)
(0.999909 0.0027643 0)
(1.00002 0.000124163 0)
(1.00009 4.43061e-05 0)
(1.00011 -0.000161382 0)
(0.999748 -7.19014e-05 0)
(1.00007 -4.42872e-05 0)
(0.999874 -0.000115828 0)
(0.999879 -0.00014467 0)
(0.999796 -0.000253985 0)
(0.999932 -0.000200998 0)
(0.999795 -0.000208166 0)
(1.00001 -0.000225871 0)
(0.999963 3.00989e-05 0)
(1.00012 0.000271318 0)
(1.00014 0.000489641 0)
(1.00026 0.00080423 0)
(1.00027 0.00113768 0)
(1.00039 0.00146681 0)
(1.00031 0.001871 0)
(1.0003 0.00231735 0)
(1.00011 0.00275612 0)
(1.00002 0.000112624 0)
(1.00008 3.09047e-05 0)
(1.0001 -0.000112332 0)
(0.999749 -3.75812e-05 0)
(1.00007 -0.000136029 0)
(0.999873 -0.000134959 0)
(0.999863 -8.70793e-05 0)
(0.999789 -0.00025767 0)
(0.999946 -0.000208654 0)
(0.999798 -8.09891e-05 0)
(1.00004 -8.50886e-05 0)
(1.00002 9.21365e-05 0)
(1.00018 0.000357149 0)
(1.00022 0.000582827 0)
(1.00036 0.000867574 0)
(1.00039 0.00120591 0)
(1.00053 0.00154059 0)
(1.00048 0.00191634 0)
(1.00049 0.00232418 0)
(1.00031 0.0027344 0)
(1.00003 0.000101862 0)
(1.00006 2.1157e-05 0)
(1.0001 -0.000102126 0)
(0.999742 2.82976e-05 0)
(1.00006 -0.000165043 0)
(0.999883 -0.000212807 0)
(0.999857 -4.2086e-05 0)
(0.999777 -0.00016565 0)
(0.999973 -0.000215944 0)
(0.999824 3.83629e-06 0)
(1.00006 8.41381e-05 0)
(1.00008 0.000207847 0)
(1.00026 0.000455033 0)
(1.0003 0.000687158 0)
(1.00047 0.000947336 0)
(1.00052 0.0012728 0)
(1.00068 0.00160267 0)
(1.00065 0.00195612 0)
(1.00068 0.00232904 0)
(1.00052 0.00270475 0)
(1.00003 8.41918e-05 0)
(1.00005 3.32091e-05 0)
(1.0001 -0.000130255 0)
(0.999737 8.73312e-05 0)
(1.00003 -0.000111147 0)
(0.999898 -0.000300858 0)
(0.999874 -5.90684e-05 0)
(0.999759 -4.36101e-05 0)
(0.999991 -0.000133972 0)
(0.999876 3.43624e-05 0)
(1.00009 0.000204113 0)
(1.00013 0.000336802 0)
(1.00033 0.000552127 0)
(1.00038 0.000785239 0)
(1.00057 0.00103173 0)
(1.00065 0.00133168 0)
(1.00083 0.00165327 0)
(1.00082 0.00198719 0)
(1.00087 0.00233355 0)
(1.00072 0.00267527 0)
(1.00003 6.74498e-05 0)
(1.00003 5.03145e-05 0)
(1.00011 -0.000148568 0)
(0.999742 8.33125e-05 0)
(0.999992 -2.22898e-05 0)
(0.999898 -0.000308156 0)
(0.999913 -0.000150538 0)
(0.999766 3.3483e-05 0)
(1 2.91184e-05 0)
(0.999919 0.000112088 0)
(1.00015 0.000264345 0)
(1.0002 0.000426946 0)
(1.00041 0.000635468 0)
(1.00048 0.000871827 0)
(1.00068 0.00111033 0)
(1.00079 0.00138721 0)
(1.00098 0.00169791 0)
(1.00099 0.00201093 0)
(1.00106 0.00233351 0)
(1.00093 0.00264523 0)
(1.00003 5.34125e-05 0)
(1.00001 6.4422e-05 0)
(1.00011 -0.000144352 0)
(0.999755 3.39044e-05 0)
(0.999958 6.4023e-05 0)
(0.999876 -0.000210461 0)
(0.999953 -0.000206841 0)
(0.999806 2.64076e-05 0)
(1.00002 0.000160999 0)
(0.999948 0.000261069 0)
(1.0002 0.000365403 0)
(1.00026 0.000504215 0)
(1.0005 0.000708993 0)
(1.00057 0.000943069 0)
(1.00079 0.00117657 0)
(1.00092 0.00143182 0)
(1.00114 0.00172598 0)
(1.00117 0.00202178 0)
(1.00125 0.00232078 0)
(1.00112 0.00260758 0)
(1.00004 4.31218e-05 0)
(0.99999 6.45264e-05 0)
(1.0001 -0.000110618 0)
(0.999777 -1.83789e-05 0)
(0.999939 9.78112e-05 0)
(0.99984 -7.9181e-05 0)
(0.999972 -0.000158099 0)
(0.999863 -2.20963e-05 0)
(1.00007 0.00019663 0)
(0.999984 0.000396551 0)
(1.00023 0.000510742 0)
(1.00032 0.000603146 0)
(1.00058 0.000773224 0)
(1.00067 0.000998158 0)
(1.00091 0.00123437 0)
(1.00106 0.00146431 0)
(1.0013 0.00173552 0)
(1.00134 0.00201902 0)
(1.00143 0.00229404 0)
(1.00131 0.00256209 0)
(1.00004 3.82615e-05 0)
(0.999975 5.00742e-05 0)
(1.00009 -7.13744e-05 0)
(0.999792 -4.52108e-05 0)
(0.999939 7.91992e-05 0)
(0.999815 3.69226e-05 0)
(0.999969 -1.94015e-05 0)
(0.999908 3.57688e-07 0)
(1.00015 0.000168519 0)
(1.00005 0.000441561 0)
(1.00027 0.000636528 0)
(1.00036 0.000733094 0)
(1.00066 0.000858077 0)
(1.00078 0.00105152 0)
(1.00102 0.00128187 0)
(1.00119 0.00149142 0)
(1.00146 0.00173142 0)
(1.00152 0.00200154 0)
(1.00162 0.00225173 0)
(1.0015 0.00250578 0)
(1.00004 3.39708e-05 0)
(0.999963 3.58739e-05 0)
(1.00008 -4.28154e-05 0)
(0.999806 -2.77613e-05 0)
(0.999953 5.15495e-05 0)
(0.999813 9.90995e-05 0)
(0.999962 0.000129965 0)
(0.999922 0.000125286 0)
(1.00022 0.000183728 0)
(1.00015 0.000427775 0)
(1.00034 0.000694662 0)
(1.00041 0.000848352 0)
(1.00072 0.000965503 0)
(1.00088 0.00111653 0)
(1.00114 0.00132514 0)
(1.00131 0.00152475 0)
(1.00162 0.00172723 0)
(1.00169 0.00197359 0)
(1.0018 0.00219745 0)
(1.00168 0.00243195 0)
(1.00004 3.00941e-05 0)
(0.999956 2.53552e-05 0)
(1.00008 -3.02516e-05 0)
(0.999812 1.08702e-05 0)
(0.999968 6.1123e-05 0)
(0.999836 0.000118358 0)
(0.999977 0.000238159 0)
(0.999927 0.000285995 0)
(1.00026 0.000286482 0)
(1.00025 0.000429258 0)
(1.00044 0.000692952 0)
(1.00048 0.00090734 0)
(1.00079 0.00105608 0)
(1.00097 0.00119114 0)
(1.00125 0.00136848 0)
(1.00143 0.00155708 0)
(1.00176 0.00172434 0)
(1.00186 0.00193881 0)
(1.00198 0.00213943 0)
(1.00187 0.00234699 0)
(1.00005 2.49301e-05 0)
(0.999948 2.66349e-05 0)
(1.00008 -2.08133e-05 0)
(0.999827 4.18386e-05 0)
(0.999981 0.000108448 0)
(0.999867 0.000140114 0)
(1.00002 0.000285749 0)
(0.999941 0.000414451 0)
(1.00028 0.000425745 0)
(1.00033 0.000493037 0)
(1.00056 0.000691851 0)
(1.00059 0.000921015 0)
(1.00087 0.00110842 0)
(1.00105 0.00125642 0)
(1.00136 0.00141458 0)
(1.00154 0.00158677 0)
(1.00189 0.00172474 0)
(1.00201 0.0019061 0)
(1.00215 0.00208244 0)
(1.00205 0.00225944 0)
(1.00005 2.06682e-05 0)
(0.999943 3.0515e-05 0)
(1.00008 -6.93064e-06 0)
(0.999845 6.36089e-05 0)
(0.999995 0.000161138 0)
(0.999894 0.000196587 0)
(1.00008 0.000316585 0)
(0.999983 0.00048866 0)
(1.0003 0.000563407 0)
(1.00038 0.000603806 0)
(1.00065 0.000732272 0)
(1.0007 0.000922413 0)
(1.00098 0.00112291 0)
(1.00115 0.00128679 0)
(1.00147 0.00144247 0)
(1.00165 0.00161011 0)
(1.00201 0.00172662 0)
(1.00216 0.00187394 0)
(1.0023 0.00202551 0)
(1.00222 0.00217002 0)
(1.00005 1.91222e-05 0)
(0.999936 3.84996e-05 0)
(1.00008 1.64847e-05 0)
(0.999873 7.71628e-05 0)
(1.00002 0.000206659 0)
(0.999919 0.000266788 0)
(1.00013 0.000362474 0)
(1.00004 0.000527837 0)
(1.00033 0.000655261 0)
(1.00041 0.000719256 0)
(1.00072 0.000808188 0)
(1.00081 0.00094763 0)
(1.00109 0.00112325 0)
(1.00126 0.00129348 0)
(1.00159 0.00144092 0)
(1.00176 0.00161386 0)
(1.00211 0.001727 0)
(1.00228 0.00183903 0)
(1.00244 0.00196851 0)
(1.00237 0.00207913 0)
(1.00005 1.83534e-05 0)
(0.999935 4.63461e-05 0)
(1.00008 4.68103e-05 0)
(0.999897 0.000106535 0)
(1.00005 0.000235186 0)
(0.999947 0.000336069 0)
(1.00018 0.000420847 0)
(1.00011 0.000566397 0)
(1.00039 0.000704781 0)
(1.00045 0.0008085 0)
(1.00078 0.000893196 0)
(1.00089 0.000998364 0)
(1.0012 0.00113166 0)
(1.00137 0.00128828 0)
(1.00171 0.00142328 0)
(1.00188 0.0015819 0)
(1.0022 0.00171108 0)
(1.00238 0.00179903 0)
(1.00255 0.00190905 0)
(1.00249 0.00199223 0)
(1.00005 2.29871e-05 0)
(0.999933 5.39143e-05 0)
(1.00009 7.7948e-05 0)
(0.999924 0.000138237 0)
(1.00009 0.000266605 0)
(0.999983 0.000387291 0)
(1.00022 0.000491277 0)
(1.00017 0.000609281 0)
(1.00045 0.000746379 0)
(1.00051 0.000859529 0)
(1.00083 0.000962167 0)
(1.00096 0.00105524 0)
(1.00129 0.00115415 0)
(1.00147 0.00127873 0)
(1.00182 0.00140045 0)
(1.00201 0.00152673 0)
(1.0023 0.00166156 0)
(1.00248 0.00174636 0)
(1.00264 0.00183652 0)
(1.00259 0.00190792 0)
(1.00005 2.64807e-05 0)
(0.999935 6.58368e-05 0)
(1.00009 0.00011385 0)
(0.999947 0.000176519 0)
(1.00013 0.000297612 0)
(1.00003 0.000426552 0)
(1.00027 0.000546532 0)
(1.00023 0.000661778 0)
(1.00051 0.000778876 0)
(1.00057 0.000893971 0)
(1.00089 0.00100028 0)
(1.00101 0.00110117 0)
(1.00135 0.0011867 0)
(1.00156 0.00127504 0)
(1.00191 0.00137582 0)
(1.00211 0.00147517 0)
(1.00241 0.00158632 0)
(1.00256 0.00167514 0)
(1.00272 0.00174585 0)
(1.00266 0.00181467 0)
(1.00005 3.31613e-05 0)
(0.999938 7.73204e-05 0)
(1.0001 0.000141506 0)
(0.99997 0.000220818 0)
(1.00017 0.000334061 0)
(1.00007 0.000462894 0)
(1.00032 0.000589312 0)
(1.00028 0.000710919 0)
(1.00057 0.000817224 0)
(1.00063 0.000919726 0)
(1.00095 0.00101958 0)
(1.00107 0.00111803 0)
(1.0014 0.00120747 0)
(1.00161 0.00127454 0)
(1.00198 0.00134375 0)
(1.0022 0.00142374 0)
(1.0025 0.00150282 0)
(1.00264 0.00158121 0)
(1.0028 0.00164045 0)
(1.00272 0.00169979 0)
(1.00005 3.82993e-05 0)
(0.999942 9.52267e-05 0)
(1.00012 0.000169533 0)
(0.999992 0.000259166 0)
(1.0002 0.000370614 0)
(1.00012 0.000494476 0)
(1.00037 0.000620656 0)
(1.00033 0.000744048 0)
(1.00062 0.000853668 0)
(1.00068 0.000945376 0)
(1.00101 0.0010347 0)
(1.00113 0.00111963 0)
(1.00145 0.00120611 0)
(1.00165 0.00127392 0)
(1.00202 0.00131585 0)
(1.00225 0.00136977 0)
(1.00256 0.00142617 0)
(1.0027 0.00147981 0)
(1.00285 0.00152817 0)
(1.00277 0.00156883 0)
(1.00005 4.34632e-05 0)
(0.999946 0.000111238 0)
(1.00013 0.000193809 0)
(1.00001 0.000292775 0)
(1.00024 0.000407335 0)
(1.00016 0.000524915 0)
(1.00042 0.000645582 0)
(1.00039 0.0007672 0)
(1.00067 0.000877145 0)
(1.00073 0.000964273 0)
(1.00105 0.001044 0)
(1.00118 0.00111643 0)
(1.0015 0.00118407 0)
(1.00167 0.00125211 0)
(1.00204 0.0012895 0)
(1.00227 0.00131195 0)
(1.00259 0.00134745 0)
(1.00273 0.00137793 0)
(1.00288 0.0014075 0)
(1.0028 0.00143168 0)
(1.00005 4.74513e-05 0)
(0.99995 0.000128067 0)
(1.00014 0.000215639 0)
(1.00004 0.000319702 0)
(1.00027 0.000434998 0)
(1.0002 0.000548745 0)
(1.00047 0.000663439 0)
(1.00044 0.000776925 0)
(1.00071 0.000887866 0)
(1.00077 0.000973565 0)
(1.00109 0.00104442 0)
(1.00121 0.00111087 0)
(1.00153 0.00116153 0)
(1.0017 0.00121007 0)
(1.00203 0.00125302 0)
(1.00226 0.00125744 0)
(1.00258 0.001265 0)
(1.00272 0.00127659 0)
(1.00287 0.00128098 0)
(1.00279 0.00129101 0)
(1.00005 5.03273e-05 0)
(0.999954 0.000141118 0)
(1.00015 0.000233842 0)
(1.00006 0.000337371 0)
(1.0003 0.000453767 0)
(1.00024 0.000565417 0)
(1.00051 0.000674073 0)
(1.00049 0.000776999 0)
(1.00076 0.000881849 0)
(1.0008 0.000970658 0)
(1.00112 0.00103414 0)
(1.00123 0.00109014 0)
(1.00154 0.00113775 0)
(1.00171 0.00116156 0)
(1.00202 0.00119371 0)
(1.00221 0.00119915 0)
(1.00253 0.00118 0)
(1.00267 0.00117192 0)
(1.00281 0.001152 0)
(1.00273 0.00114348 0)
(1.00005 5.26114e-05 0)
(0.999957 0.000148536 0)
(1.00016 0.000246024 0)
(1.00008 0.00034761 0)
(1.00033 0.000461032 0)
(1.00027 0.000568063 0)
(1.00055 0.000671495 0)
(1.00053 0.000766623 0)
(1.00081 0.00086038 0)
(1.00083 0.000946838 0)
(1.00114 0.00101244 0)
(1.00124 0.00105551 0)
(1.00153 0.00109897 0)
(1.00168 0.00111435 0)
(1.00199 0.00111852 0)
(1.00214 0.00112351 0)
(1.00243 0.0010903 0)
(1.00257 0.0010587 0)
(1.00271 0.00102258 0)
(1.00264 0.000990082 0)
(1.00005 5.31555e-05 0)
(0.999962 0.000150474 0)
(1.00017 0.000249724 0)
(1.00009 0.000347438 0)
(1.00035 0.000454137 0)
(1.0003 0.0005565 0)
(1.00058 0.000653497 0)
(1.00057 0.00074094 0)
(1.00085 0.00082491 0)
(1.00087 0.000901884 0)
(1.00115 0.000969451 0)
(1.00124 0.00100908 0)
(1.00152 0.00104145 0)
(1.00163 0.00105808 0)
(1.00193 0.00104217 0)
(1.00205 0.00102894 0)
(1.0023 0.000989986 0)
(1.00242 0.000934353 0)
(1.00255 0.0008834 0)
(1.00249 0.00082783 0)
(1.00005 5.20248e-05 0)
(0.999965 0.000145965 0)
(1.00018 0.000242384 0)
(1.00011 0.000335282 0)
(1.00037 0.000433735 0)
(1.00032 0.000526989 0)
(1.00061 0.000617381 0)
(1.0006 0.000696302 0)
(1.00088 0.000771055 0)
(1.0009 0.000835969 0)
(1.00117 0.000896988 0)
(1.00124 0.00093739 0)
(1.0015 0.000963839 0)
(1.00157 0.000984603 0)
(1.00183 0.000976136 0)
(1.00192 0.000951248 0)
(1.00212 0.000913643 0)
(1.00221 0.000844162 0)
(1.00233 0.000771341 0)
(1.00229 0.000689313 0)
(1.00005 4.82147e-05 0)
(0.999969 0.000134818 0)
(1.00018 0.000223753 0)
(1.00012 0.000308511 0)
(1.00039 0.000395578 0)
(1.00034 0.00047823 0)
(1.00063 0.000558446 0)
(1.00062 0.000629412 0)
(1.0009 0.00069519 0)
(1.00092 0.000750764 0)
(1.00118 0.000798592 0)
(1.00123 0.000831177 0)
(1.00149 0.000842624 0)
(1.00154 0.000846083 0)
(1.00175 0.000835052 0)
(1.0018 0.000803643 0)
(1.00194 0.000771968 0)
(1.00195 0.00072212 0)
(1.00202 0.000668878 0)
(1.00195 0.000612947 0)
(1.00005 4.19944e-05 0)
(0.999972 0.000117587 0)
(1.00019 0.00019325 0)
(1.00013 0.000265875 0)
(1.0004 0.000338015 0)
(1.00036 0.000406173 0)
(1.00066 0.000471675 0)
(1.00065 0.000530638 0)
(1.00093 0.000585634 0)
(1.00093 0.000632703 0)
(1.00118 0.000672577 0)
(1.0012 0.000701977 0)
(1.00141 0.000713487 0)
(1.00145 0.000709213 0)
(1.00162 0.000695215 0)
(1.00167 0.00065945 0)
(1.00181 0.000616984 0)
(1.00183 0.000564731 0)
(1.00191 0.000507207 0)
(1.00186 0.000451213 0)
(1.00005 3.45054e-05 0)
(0.999973 9.80442e-05 0)
(1.00019 0.000162366 0)
(1.00013 0.00022442 0)
(1.00041 0.000286235 0)
(1.00038 0.000343956 0)
(1.00067 0.000400425 0)
(1.00066 0.000451715 0)
(1.00094 0.000501016 0)
(1.00095 0.000544686 0)
(1.00119 0.000584781 0)
(1.0012 0.000618261 0)
(1.0014 0.000643716 0)
(1.0014 0.000652812 0)
(1.00153 0.000651638 0)
(1.00151 0.000629165 0)
(1.00158 0.000588604 0)
(1.00153 0.000532761 0)
(1.00155 0.000465206 0)
(1.00149 0.000394979 0)
(1.00005 1.51903e-05 0)
(0.999977 4.44595e-05 0)
(1.0002 7.45699e-05 0)
(1.00014 0.000104287 0)
(1.00043 0.000134077 0)
(1.0004 0.000162446 0)
(1.0007 0.00019017 0)
(1.00069 0.000216285 0)
(1.00097 0.000241116 0)
(1.00098 0.000264169 0)
(1.00122 0.000284711 0)
(1.00122 0.0003013 0)
(1.00139 0.000313902 0)
(1.00137 0.000318737 0)
(1.00147 0.000318811 0)
(1.00141 0.000312205 0)
(1.00145 0.000299084 0)
(1.00136 0.000281757 0)
(1.00137 0.000261027 0)
(1.00129 0.000239919 0)
(0.984114 0.00223141 0)
(0.960035 0.00338795 0)
(0.935667 0.0037545 0)
(0.910849 0.00373497 0)
(0.88556 0.00365605 0)
(0.860026 0.00361513 0)
(0.834181 0.00360547 0)
(0.807908 0.00358804 0)
(0.781181 0.00355318 0)
(0.75396 0.00350078 0)
(0.726357 0.00344469 0)
(0.698185 0.00338543 0)
(0.669608 0.00333106 0)
(0.640411 0.0032792 0)
(0.610804 0.00322605 0)
(0.580564 0.00317442 0)
(0.549877 0.00309853 0)
(0.518882 0.00300664 0)
(0.487748 0.00290315 0)
(0.45662 0.00282084 0)
(0.425326 0.00274223 0)
(0.394164 0.00260642 0)
(0.363529 0.00236574 0)
(0.334266 0.00203164 0)
(0.307196 0.00163662 0)
(0.283101 0.00116833 0)
(0.263027 0.000590596 0)
(0.247497 8.23193e-05 0)
(0.236278 -0.00026284 0)
(0.228487 -0.000444639 0)
(0.222974 -0.000509976 0)
(0.219035 -0.000483147 0)
(0.216056 -0.00044818 0)
(0.213535 -0.000395806 0)
(0.21131 -0.000339274 0)
(0.209165 -0.000291246 0)
(0.207031 -0.000241863 0)
(0.204813 -0.000200512 0)
(0.202434 -0.000158766 0)
(0.199938 -0.000121466 0)
(0.197359 -9.86027e-05 0)
(0.194662 -7.24449e-05 0)
(0.191898 -5.11331e-05 0)
(0.189157 -4.5534e-05 0)
(0.186507 -3.78042e-05 0)
(0.183872 -1.95468e-05 0)
(0.181235 -7.78394e-06 0)
(0.178606 -9.79875e-06 0)
(0.176065 -5.62231e-06 0)
(0.173652 4.13614e-06 0)
(0.171349 2.58018e-06 0)
(0.169124 -3.12103e-07 0)
(0.16701 7.21726e-06 0)
(0.164952 1.29539e-05 0)
(0.163041 7.62625e-06 0)
(0.161335 1.25859e-06 0)
(0.159731 1.3648e-05 0)
(0.158047 2.13216e-05 0)
(0.156484 1.14787e-05 0)
(0.155177 6.48018e-06 0)
(0.154013 1.18971e-05 0)
(0.152808 1.41359e-05 0)
(0.151698 1.16429e-05 0)
(0.150735 8.73705e-06 0)
(0.149921 8.63634e-06 0)
(0.149148 9.86141e-06 0)
(0.148471 8.43093e-06 0)
(0.147862 7.13762e-06 0)
(0.147344 7.82628e-06 0)
(0.146848 6.30232e-06 0)
(0.14647 3.839e-06 0)
(0.146115 4.96321e-06 0)
(0.145821 4.4956e-06 0)
(0.145539 2.13399e-06 0)
(0.145367 1.99214e-06 0)
(0.145162 3.03937e-06 0)
(0.145026 2.01598e-06 0)
(0.144879 6.07346e-07 0)
(0.144823 9.19772e-07 0)
(0.144706 9.40263e-07 0)
(0.14467 3.24104e-07 0)
(0.144588 -2.39144e-08 0)
(0.144595 -6.36452e-08 0)
(0.144527 2.64448e-08 0)
(0.144557 -2.81221e-07 0)
(0.144502 -2.1905e-07 0)
(0.144555 -2.95559e-07 0)
(0.144503 -2.83435e-07 0)
(0.144572 -3.13097e-07 0)
(0.144515 -2.44639e-07 0)
(0.144596 -2.76643e-07 0)
(0.14453 -1.30223e-07 0)
(0.144619 -2.17957e-07 0)
(0.144537 -5.75476e-08 0)
(0.144632 -4.63342e-08 0)
(0.144528 1.55362e-07 0)
(0.14463 1.34811e-07 0)
(0.144494 2.59818e-07 0)
(0.144615 1.15752e-06 0)
(0.144375 2.14527e-06 0)
(0.996619 0.00401314 0)
(0.995788 0.00574037 0)
(0.994481 0.00639901 0)
(0.992831 0.00639428 0)
(0.990645 0.0062558 0)
(0.988064 0.00619368 0)
(0.98497 0.00622893 0)
(0.981235 0.00630466 0)
(0.976871 0.0063797 0)
(0.971722 0.00644816 0)
(0.965978 0.00651113 0)
(0.959332 0.00657662 0)
(0.951984 0.00664022 0)
(0.943682 0.00670735 0)
(0.93452 0.0067734 0)
(0.924396 0.00683433 0)
(0.913199 0.0068723 0)
(0.901099 0.00687283 0)
(0.887936 0.00683605 0)
(0.873871 0.00679575 0)
(0.858759 0.00674907 0)
(0.842624 0.00666776 0)
(0.825765 0.00650785 0)
(0.808261 0.00620843 0)
(0.790726 0.00574624 0)
(0.773321 0.0051228 0)
(0.756702 0.00434819 0)
(0.741437 0.00353925 0)
(0.727346 0.00278473 0)
(0.71469 0.0021708 0)
(0.702858 0.00171306 0)
(0.691624 0.00140054 0)
(0.681173 0.00119281 0)
(0.670835 0.00104796 0)
(0.660967 0.000938279 0)
(0.651385 0.000859176 0)
(0.641941 0.000814658 0)
(0.632686 0.000787257 0)
(0.623359 0.000773297 0)
(0.614116 0.000743787 0)
(0.605076 0.000715073 0)
(0.595954 0.000712039 0)
(0.58689 0.000681284 0)
(0.578106 0.00063365 0)
(0.569582 0.000603255 0)
(0.56099 0.000575778 0)
(0.552685 0.000556229 0)
(0.54466 0.000533468 0)
(0.536629 0.000493037 0)
(0.528866 0.000450961 0)
(0.521635 0.00042517 0)
(0.514521 0.00040312 0)
(0.50747 0.00036853 0)
(0.500764 0.000339931 0)
(0.49473 0.000307468 0)
(0.488832 0.000264142 0)
(0.483008 0.000259514 0)
(0.477561 0.000254882 0)
(0.472643 0.00020601 0)
(0.467949 0.00017231 0)
(0.463615 0.000171626 0)
(0.459451 0.000160002 0)
(0.45564 0.000135346 0)
(0.452136 0.000111312 0)
(0.448986 9.7477e-05 0)
(0.446048 9.03199e-05 0)
(0.443474 7.5578e-05 0)
(0.441036 6.18295e-05 0)
(0.438925 5.81179e-05 0)
(0.436986 4.92214e-05 0)
(0.435335 3.60574e-05 0)
(0.433744 3.46676e-05 0)
(0.432492 3.14884e-05 0)
(0.431261 2.18892e-05 0)
(0.430313 1.75536e-05 0)
(0.429342 1.80201e-05 0)
(0.428683 1.36876e-05 0)
(0.427953 8.4061e-06 0)
(0.427503 8.25077e-06 0)
(0.426938 7.71511e-06 0)
(0.426653 5.38074e-06 0)
(0.426221 3.57765e-06 0)
(0.426082 2.81896e-06 0)
(0.425748 2.37401e-06 0)
(0.42573 1.02469e-06 0)
(0.425466 5.73183e-07 0)
(0.42555 6.55895e-08 0)
(0.425331 -2.42273e-07 0)
(0.42549 -3.88355e-07 0)
(0.425293 -5.35523e-07 0)
(0.425508 -6.58547e-07 0)
(0.425309 -3.48361e-07 0)
(0.425563 -4.45487e-07 0)
(0.425339 -1.26253e-07 0)
(0.425618 1.54611e-07 0)
(0.425355 2.83377e-07 0)
(0.425649 7.33014e-07 0)
(0.425332 1.18353e-06 0)
(0.425629 2.02396e-06 0)
(0.425264 8.80168e-06 0)
(0.997104 0.00361373 0)
(0.99667 0.0047279 0)
(0.996304 0.00541978 0)
(0.996157 0.00560131 0)
(0.996081 0.00557248 0)
(0.996163 0.00552732 0)
(0.996276 0.00559187 0)
(0.996308 0.00572274 0)
(0.996251 0.00588382 0)
(0.996022 0.00604542 0)
(0.995732 0.0061961 0)
(0.995203 0.00636604 0)
(0.994509 0.0065211 0)
(0.993558 0.00670205 0)
(0.992328 0.00688043 0)
(0.990831 0.00706711 0)
(0.988904 0.00724047 0)
(0.986653 0.00736729 0)
(0.983937 0.00747364 0)
(0.980775 0.00755907 0)
(0.977189 0.00766008 0)
(0.973036 0.0077093 0)
(0.968571 0.00766885 0)
(0.963564 0.00745012 0)
(0.958255 0.00701922 0)
(0.952634 0.00642064 0)
(0.946801 0.00564497 0)
(0.941153 0.00478841 0)
(0.935459 0.00396406 0)
(0.92998 0.00324772 0)
(0.924549 0.00275479 0)
(0.918941 0.00242839 0)
(0.913612 0.00222337 0)
(0.907979 0.00211974 0)
(0.902492 0.00202109 0)
(0.896921 0.00194715 0)
(0.89121 0.00191467 0)
(0.885531 0.00189907 0)
(0.879594 0.00191144 0)
(0.873596 0.00188677 0)
(0.867556 0.00184828 0)
(0.861252 0.00186236 0)
(0.854951 0.00183357 0)
(0.848459 0.00174453 0)
(0.842007 0.00169554 0)
(0.835286 0.00166858 0)
(0.828532 0.00161579 0)
(0.821773 0.00155921 0)
(0.814814 0.00150267 0)
(0.807893 0.00142321 0)
(0.801109 0.00134213 0)
(0.794219 0.00129025 0)
(0.787467 0.0012434 0)
(0.780525 0.0011672 0)
(0.774005 0.00106203 0)
(0.767629 0.000985557 0)
(0.761056 0.000967946 0)
(0.754615 0.000921117 0)
(0.748674 0.000805435 0)
(0.742669 0.000721013 0)
(0.737024 0.000694604 0)
(0.73145 0.000652048 0)
(0.726114 0.000581921 0)
(0.720995 0.000513806 0)
(0.716205 0.000463206 0)
(0.711553 0.000419709 0)
(0.70741 0.000371375 0)
(0.703311 0.000327817 0)
(0.699522 0.000293626 0)
(0.695949 0.000254676 0)
(0.692795 0.000217308 0)
(0.689651 0.000194546 0)
(0.687037 0.000168044 0)
(0.684462 0.000138096 0)
(0.682296 0.000118696 0)
(0.680089 0.000104658 0)
(0.678403 8.53624e-05 0)
(0.676621 6.8036e-05 0)
(0.6753 5.9287e-05 0)
(0.67386 4.99655e-05 0)
(0.672886 3.94527e-05 0)
(0.671734 3.07499e-05 0)
(0.671048 2.44921e-05 0)
(0.670135 1.89523e-05 0)
(0.669718 1.31651e-05 0)
(0.669001 9.09186e-06 0)
(0.668816 5.74364e-06 0)
(0.66826 2.95681e-06 0)
(0.668256 9.00831e-07 0)
(0.667827 -7.30779e-07 0)
(0.667966 -2.00342e-06 0)
(0.667626 -2.11541e-06 0)
(0.667875 -2.67426e-06 0)
(0.66758 -1.9696e-06 0)
(0.667891 -1.64575e-06 0)
(0.667619 -4.49778e-07 0)
(0.667942 -1.97595e-07 0)
(0.667674 2.5642e-06 0)
(0.667959 1.64252e-06 0)
(0.667718 1.53947e-05 0)
(0.997634 0.00346555 0)
(0.99715 0.00439665 0)
(0.996731 0.00514185 0)
(0.996529 0.00556396 0)
(0.996504 0.00570878 0)
(0.996718 0.00570635 0)
(0.997046 0.00573914 0)
(0.997389 0.00584022 0)
(0.997702 0.00599279 0)
(0.998 0.00616688 0)
(0.998331 0.00632944 0)
(0.998627 0.0065172 0)
(0.998914 0.00669287 0)
(0.999166 0.00689181 0)
(0.999394 0.00708733 0)
(0.999587 0.00729208 0)
(0.999701 0.00748636 0)
(0.999762 0.00763528 0)
(0.999737 0.00777113 0)
(0.999611 0.00788736 0)
(0.999433 0.00800776 0)
(0.999126 0.00807976 0)
(0.998836 0.0080198 0)
(0.998373 0.00778613 0)
(0.997786 0.00734376 0)
(0.996994 0.00675945 0)
(0.995991 0.00601921 0)
(0.994882 0.00519254 0)
(0.993583 0.00439576 0)
(0.992125 0.00368529 0)
(0.990531 0.00319421 0)
(0.988666 0.00286767 0)
(0.986923 0.00266564 0)
(0.984959 0.00258913 0)
(0.983112 0.00249597 0)
(0.981142 0.00243347 0)
(0.979102 0.00240033 0)
(0.977043 0.00237754 0)
(0.974902 0.0024003 0)
(0.972698 0.0023613 0)
(0.970433 0.00231432 0)
(0.96796 0.00233661 0)
(0.965607 0.00230514 0)
(0.962985 0.0022138 0)
(0.96037 0.00217309 0)
(0.95755 0.00215952 0)
(0.954651 0.00211298 0)
(0.951664 0.00207211 0)
(0.948492 0.00202599 0)
(0.945149 0.00193787 0)
(0.941871 0.00186498 0)
(0.938342 0.00181433 0)
(0.934867 0.00176147 0)
(0.931174 0.00169595 0)
(0.927664 0.00157378 0)
(0.924012 0.00147777 0)
(0.920225 0.00147738 0)
(0.916435 0.00142799 0)
(0.912899 0.00128475 0)
(0.909014 0.00118416 0)
(0.905357 0.00114896 0)
(0.901654 0.00109806 0)
(0.898035 0.00101253 0)
(0.894372 0.000921816 0)
(0.890911 0.000855551 0)
(0.887396 0.0007929 0)
(0.884206 0.000718993 0)
(0.880895 0.000660186 0)
(0.877751 0.000612047 0)
(0.874606 0.000546502 0)
(0.871772 0.000484857 0)
(0.868857 0.000444947 0)
(0.866403 0.000398248 0)
(0.863837 0.000347596 0)
(0.861589 0.00031221 0)
(0.859174 0.000280546 0)
(0.857212 0.000240348 0)
(0.855093 0.000204874 0)
(0.853431 0.000181685 0)
(0.851652 0.000158742 0)
(0.850317 0.000134962 0)
(0.848799 0.000114537 0)
(0.847715 9.74336e-05 0)
(0.846413 8.13259e-05 0)
(0.845581 6.53918e-05 0)
(0.844486 5.23226e-05 0)
(0.843906 4.06255e-05 0)
(0.843029 3.09727e-05 0)
(0.842673 2.21243e-05 0)
(0.841993 1.55305e-05 0)
(0.841832 9.06879e-06 0)
(0.841316 5.53545e-06 0)
(0.84132 1.11717e-06 0)
(0.840932 1.94784e-07 0)
(0.841047 -2.47215e-06 0)
(0.840775 -1.11961e-06 0)
(0.840946 -3.38497e-06 0)
(0.840773 1.86033e-06 0)
(0.840945 -1.91068e-06 0)
(0.840868 1.72861e-05 0)
(0.998005 0.00342722 0)
(0.997492 0.0042459 0)