/*--------------------------------*- C++ -*----------------------------------*\
| =========                 |                                                 |
| \\      /  F ield         | OpenFOAM: The Open Source CFD Toolbox           |
|  \\    /   O peration     | Version:  v1906                                 |
|   \\  /    A nd           | Web:      www.OpenFOAM.com                      |
|    \\/     M anipulation  |                                                 |
\*---------------------------------------------------------------------------*/
FoamFile
{
    version     2.0;
    format      ascii;
    class       volScalarField;
    location    "0.1";
    object      p;
}
// * * * * * * * * * * * * * * * * * * * * * * * * * * * * * * * * * * * * * //

dimensions      [0 2 -2 0 0 0 0];


internalField   nonuniform List<scalar> 
800
(
5.851e-08
-2.59913e-05
0.00341526
0.00887548
0.0153653
0.0226256
0.0306277
0.0393841
0.048964
0.0595086
0.0712436
0.0845094
0.0998197
0.118004
0.140392
0.168353
0.20315
0.260313
0.394702
0.484735
-0.0140459
-0.015745
-0.0142443
-0.0104962
-0.00553308
0.00032513
0.00695412
0.0142775
0.0222749
0.0309782
0.0404643
0.0508501
0.0622769
0.0748973
0.0888458
0.103594
0.115812
0.122226
0.132668
0.0789365
-0.0355882
-0.037865
-0.0375673
-0.0352584
-0.031797
-0.0275011
-0.0225428
-0.0170691
-0.011199
-0.00503818
0.0012931
0.00761514
0.013607
0.0186655
0.0216792
0.0204076
0.00975919
-0.0186602
-0.0711533
-0.174463
-0.0592558
-0.0611559
-0.0611929
-0.0596888
-0.0572675
-0.0541935
-0.0506488
-0.0468181
-0.0428896
-0.0390721
-0.0356342
-0.0329646
-0.0316713
-0.0327393
-0.0377629
-0.0493484
-0.0718822
-0.111744
-0.175324
-0.274689
-0.0842976
-0.0857126
-0.0858555
-0.0849088
-0.0833088
-0.081273
-0.0789845
-0.0766504
-0.0745025
-0.0728172
-0.0719545
-0.072418
-0.0749422
-0.0806154
-0.0910434
-0.108568
-0.136532
-0.179131
-0.240432
-0.325801
-0.11036
-0.111352
-0.11154
-0.111028
-0.110119
-0.108996
-0.10784
-0.106867
-0.106332
-0.106546
-0.107912
-0.110976
-0.116489
-0.125494
-0.139414
-0.16015
-0.190121
-0.231997
-0.287951
-0.359538
-0.137032
-0.137648
-0.137836
-0.137662
-0.137329
-0.136993
-0.136829
-0.13705
-0.137915
-0.139743
-0.14294
-0.148038
-0.155738
-0.166955
-0.182858
-0.204884
-0.234686
-0.273854
-0.323355
-0.38306
-0.163986
-0.164267
-0.164429
-0.164519
-0.164664
-0.164998
-0.165682
-0.166918
-0.168954
-0.172094
-0.176722
-0.183319
-0.192495
-0.205005
-0.221756
-0.243777
-0.272135
-0.3077
-0.350765
-0.40065
-0.190972
-0.190955
-0.19108
-0.19138
-0.191922
-0.192818
-0.194214
-0.196293
-0.199279
-0.203449
-0.209142
-0.216773
-0.226847
-0.239956
-0.256769
-0.277994
-0.30428
-0.33605
-0.373251
-0.4151
-0.217784
-0.217503
-0.217584
-0.218053
-0.218925
-0.22029
-0.222277
-0.225043
-0.228783
-0.233733
-0.24018
-0.248466
-0.25899
-0.272198
-0.288563
-0.308546
-0.332514
-0.360622
-0.392658
-0.427889
-0.24425
-0.24373
-0.243763
-0.244371
-0.24552
-0.247279
-0.249755
-0.253076
-0.257402
-0.262927
-0.269879
-0.278526
-0.289172
-0.302137
-0.317738
-0.336256
-0.357869
-0.382578
-0.410106
-0.439822
-0.270224
-0.269483
-0.269467
-0.270195
-0.271583
-0.27368
-0.276565
-0.280338
-0.285119
-0.291057
-0.298325
-0.307119
-0.317659
-0.33016
-0.344821
-0.361791
-0.381125
-0.402736
-0.426333
-0.451391
-0.295578
-0.294623
-0.294562
-0.295402
-0.297014
-0.299415
-0.30266
-0.306812
-0.311953
-0.318189
-0.325637
-0.334433
-0.34472
-0.356631
-0.370272
-0.385699
-0.402888
-0.421701
-0.44186
-0.462925
-0.320192
-0.319021
-0.318922
-0.319889
-0.321731
-0.324434
-0.328018
-0.332511
-0.337957
-0.344417
-0.351962
-0.360672
-0.370625
-0.381889
-0.394498
-0.408442
-0.423644
-0.43994
-0.457069
-0.474667
-0.343941
-0.342542
-0.342427
-0.343559
-0.34567
-0.348703
-0.352641
-0.357473
-0.363205
-0.369858
-0.377461
-0.386045
-0.395636
-0.406247
-0.417858
-0.430409
-0.443789
-0.457821
-0.472261
-0.486802
-0.366658
-0.365007
-0.364918
-0.366291
-0.368745
-0.37217
-0.376508
-0.38171
-0.387743
-0.394593
-0.402252
-0.410711
-0.419952
-0.429942
-0.44062
-0.45189
-0.463614
-0.475607
-0.487643
-0.499457
-0.388112
-0.386169
-0.386178
-0.387913
-0.390828
-0.394742
-0.399557
-0.405187
-0.411565
-0.418646
-0.426391
-0.434758
-0.443694
-0.453129
-0.462967
-0.473084
-0.48332
-0.493486
-0.503366
-0.512727
-0.408115
-0.406
-0.406342
-0.408689
-0.41228
-0.416855
-0.422283
-0.428446
-0.435256
-0.442644
-0.450547
-0.458895
-0.467607
-0.476583
-0.485697
-0.494799
-0.503711
-0.512235
-0.52016
-0.527275
-0.426147
-0.424674
-0.426108
-0.429618
-0.434276
-0.439792
-0.446032
-0.452879
-0.460238
-0.46803
-0.476176
-0.48459
-0.493163
-0.501769
-0.510254
-0.51844
-0.526126
-0.533098
-0.539139
-0.544048
-0.437818
-0.437735
-0.440728
-0.445521
-0.451177
-0.457458
-0.464284
-0.47157
-0.47924
-0.487219
-0.495427
-0.503766
-0.512115
-0.520327
-0.528223
-0.535602
-0.542237
-0.547894
-0.552343
-0.555379
-0.436515
-0.98579
-1.07605
-1.04603
-1.00382
-0.964752
-0.930982
-0.902493
-0.878296
-0.857357
-0.838915
-0.822463
-0.807686
-0.794402
-0.782524
-0.772041
-0.763003
-0.755439
-0.748988
-0.743728
-0.402025
-0.732729
-0.852102
-0.888753
-0.896627
-0.890515
-0.87804
-0.863503
-0.848753
-0.834489
-0.820979
-0.808324
-0.796571
-0.78576
-0.775935
-0.767155
-0.759525
-0.753187
-0.747663
-0.74192
-0.417885
-0.620777
-0.733652
-0.792149
-0.82123
-0.832525
-0.83354
-0.82907
-0.821775
-0.813099
-0.803861
-0.794545
-0.785457
-0.776808
-0.76876
-0.761441
-0.755022
-0.749795
-0.745237
-0.738965
-0.431069
-0.574684
-0.67199
-0.73209
-0.767812
-0.787298
-0.796231
-0.79857
-0.796846
-0.792651
-0.787008
-0.780586
-0.773844
-0.767111
-0.760636
-0.754614
-0.749279
-0.745076
-0.741514
-0.734936
-0.438998
-0.546816
-0.628746
-0.68577
-0.723903
-0.748113
-0.762364
-0.769733
-0.772429
-0.771988
-0.76948
-0.765659
-0.761069
-0.756115
-0.751117
-0.746323
-0.742023
-0.738803
-0.736247
-0.729532
-0.445248
-0.528482
-0.597145
-0.649431
-0.687494
-0.714014
-0.731593
-0.74251
-0.748577
-0.751164
-0.751293
-0.749727
-0.747046
-0.7437
-0.740051
-0.736392
-0.733053
-0.73074
-0.729124
-0.722335
-0.45039
-0.516571
-0.574301
-0.621154
-0.657439
-0.684425
-0.703705
-0.716873
-0.725328
-0.730216
-0.732451
-0.732754
-0.731697
-0.729747
-0.727289
-0.724639
-0.722156
-0.720637
-0.71983
-0.712943
-0.45503
-0.508861
-0.557557
-0.598899
-0.632439
-0.658631
-0.678369
-0.692705
-0.702664
-0.709159
-0.712963
-0.714723
-0.714978
-0.714181
-0.712724
-0.71093
-0.709167
-0.708296
-0.708114
-0.701038
-0.45977
-0.504151
-0.545264
-0.581314
-0.611606
-0.636157
-0.655407
-0.670009
-0.680682
-0.68812
-0.692954
-0.69574
-0.696963
-0.697045
-0.696364
-0.695235
-0.694023
-0.693621
-0.693844
-0.686435
-0.46494
-0.501791
-0.536454
-0.567547
-0.594361
-0.616707
-0.634753
-0.648877
-0.659564
-0.667326
-0.672659
-0.676025
-0.677846
-0.6785
-0.678336
-0.677649
-0.676785
-0.676645
-0.677025
-0.669104
-0.470699
-0.501373
-0.530481
-0.556986
-0.580261
-0.600048
-0.616363
-0.629413
-0.639514
-0.647036
-0.652362
-0.655866
-0.657901
-0.658799
-0.658867
-0.65837
-0.657624
-0.657522
-0.657795
-0.649165
-0.477137
-0.502619
-0.526884
-0.549162
-0.568941
-0.585962
-0.600177
-0.61169
-0.620709
-0.6275
-0.632355
-0.635573
-0.637444
-0.638249
-0.638251
-0.637677
-0.636809
-0.636509
-0.63641
-0.626874
-0.484314
-0.505341
-0.525328
-0.543711
-0.56009
-0.574244
-0.586109
-0.59574
-0.60328
-0.608924
-0.612899
-0.615443
-0.616793
-0.617178
-0.61682
-0.615905
-0.614671
-0.61394
-0.613218
-0.602595
-0.492282
-0.509413
-0.525572
-0.540348
-0.553446
-0.564698
-0.574051
-0.581548
-0.587297
-0.591454
-0.594199
-0.595728
-0.59623
-0.595895
-0.594901
-0.593392
-0.591566
-0.590189
-0.588621
-0.576758
-0.50109
-0.514753
-0.527437
-0.53885
-0.548786
-0.557134
-0.563872
-0.569049
-0.572767
-0.575159
-0.576383
-0.5766
-0.57597
-0.574646
-0.57277
-0.570445
-0.567824
-0.565621
-0.56303
-0.549824
-0.510766
-0.52129
-0.530776
-0.539023
-0.545903
-0.551362
-0.555415
-0.558136
-0.559634
-0.560041
-0.559502
-0.558163
-0.556162
-0.553624
-0.55066
-0.547335
-0.543764
-0.540602
-0.536878
-0.522302
-0.521339
-0.528988
-0.535497
-0.540741
-0.544657
-0.547247
-0.548571
-0.548735
-0.54787
-0.546118
-0.543628
-0.540539
-0.536977
-0.533048
-0.528838
-0.52438
-0.519753
-0.515561
-0.510659
-0.494733
-0.533386
-0.53833
-0.541988
-0.544299
-0.54526
-0.54493
-0.54342
-0.540877
-0.537463
-0.533346
-0.528688
-0.523633
-0.518304
-0.512797
-0.507178
-0.501455
-0.495679
-0.490407
-0.48431
-0.467008
-0.547653
-0.549829
-0.550507
-0.549685
-0.547427
-0.543855
-0.539145
-0.533501
-0.527136
-0.520255
-0.51305
-0.505685
-0.498286
-0.490945
-0.48371
-0.476573
-0.469575
-0.463205
-0.455972
-0.437915
-0.55684
-0.556624
-0.554704
-0.55113
-0.546027
-0.539587
-0.532052
-0.523689
-0.514768
-0.505539
-0.496224
-0.487006
-0.478016
-0.469336
-0.460996
-0.452967
-0.445306
-0.438336
-0.430346
-0.414737
)
;

boundaryField
{
    zeroGradPlanes
    {
        type            zeroGradient;
    }
    inlet
    {
        type            zeroGradient;
    }
    plate
    {
        type            zeroGradient;
    }
    frontAndBack
    {
        type            empty;
    }
}


// ************************************************************************* //
