/*--------------------------------*- C++ -*----------------------------------*\
| =========                 |                                                 |
| \\      /  F ield         | OpenFOAM: The Open Source CFD Toolbox           |
|  \\    /   O peration     | Version:  v1906                                 |
|   \\  /    A nd           | Web:      www.OpenFOAM.com                      |
|    \\/     M anipulation  |                                                 |
\*---------------------------------------------------------------------------*/
FoamFile
{
    version     2.0;
    format      ascii;
    class       surfaceScalarField;
    location    "0.1";
    object      phi;
}
// * * * * * * * * * * * * * * * * * * * * * * * * * * * * * * * * * * * * * //

dimensions      [0 3 -1 0 0 0 0];
oriented        oriented;


internalField   nonuniform List<scalar> 
1540
(
4.99026e-05
4.57015e-07
4.97253e-05
1.49079e-06
4.95086e-05
2.6366e-06
4.92634e-05
3.88308e-06
4.8996e-05
5.22178e-06
4.87096e-05
6.64888e-06
4.84057e-05
8.16502e-06
4.80845e-05
9.77492e-06
4.77447e-05
1.14878e-05
4.73843e-05
1.33178e-05
4.69996e-05
1.5285e-05
4.6585e-05
1.74151e-05
4.61318e-05
1.97378e-05
4.56257e-05
2.22803e-05
4.5042e-05
2.50513e-05
4.4339e-05
2.80038e-05
4.34288e-05
3.09718e-05
4.20369e-05
3.35567e-05
3.9406e-05
3.4687e-05
3.10238e-05
3.47731e-05
4.99242e-05
5.32768e-07
4.97682e-05
1.64683e-06
4.95645e-05
2.84029e-06
4.93297e-05
4.11784e-06
4.90728e-05
5.47875e-06
4.87983e-05
6.92339e-06
4.85087e-05
8.45462e-06
4.82051e-05
1.00784e-05
4.78881e-05
1.18048e-05
4.75575e-05
1.36484e-05
4.72131e-05
1.56294e-05
4.68549e-05
1.77734e-05
4.64835e-05
2.01092e-05
4.61015e-05
2.26624e-05
4.57136e-05
2.54391e-05
4.53285e-05
2.8389e-05
4.49656e-05
3.13346e-05
4.46767e-05
3.38456e-05
4.44414e-05
3.49223e-05
3.22034e-05
4.32618e-05
4.99478e-05
5.85001e-07
4.98199e-05
1.77472e-06
4.96423e-05
3.01786e-06
4.9432e-05
4.32817e-06
4.91993e-05
5.71139e-06
4.89509e-05
7.17179e-06
4.86911e-05
8.71444e-06
4.84232e-05
1.03464e-05
4.81502e-05
1.20778e-05
4.78759e-05
1.39227e-05
4.76056e-05
1.58997e-05
4.73477e-05
1.80313e-05
4.7116e-05
2.03409e-05
4.69328e-05
2.28455e-05
4.68338e-05
2.55381e-05
4.68716e-05
2.83512e-05
4.71146e-05
3.10916e-05
4.76239e-05
3.33363e-05
4.8289e-05
3.42572e-05
3.23667e-05
4.81257e-05
4.99632e-05
6.21774e-07
4.98643e-05
1.8736e-06
4.972e-05
3.16217e-06
4.95443e-05
4.50388e-06
4.93477e-05
5.90804e-06
4.91379e-05
7.38161e-06
4.89211e-05
8.93124e-06
4.87029e-05
1.05645e-05
4.84895e-05
1.22912e-05
4.82885e-05
1.41236e-05
4.81109e-05
1.60773e-05
4.79726e-05
1.81696e-05
4.78974e-05
2.0416e-05
4.79207e-05
2.28223e-05
4.8092e-05
2.53668e-05
4.84743e-05
2.79689e-05
4.91292e-05
3.04366e-05
5.00691e-05
3.23964e-05
5.11123e-05
3.32141e-05
3.19682e-05
5.15107e-05
4.99743e-05
6.47445e-07
4.99018e-05
1.94616e-06
4.97921e-05
3.2718e-06
4.96559e-05
4.64013e-06
4.95023e-05
6.06162e-06
4.93395e-05
7.54444e-06
4.91748e-05
9.09592e-06
4.90158e-05
1.07236e-05
4.88711e-05
1.24359e-05
4.87518e-05
1.4243e-05
4.86727e-05
1.61564e-05
4.86549e-05
1.81874e-05
4.87275e-05
2.03434e-05
4.89302e-05
2.26196e-05
4.93136e-05
2.49834e-05
4.99329e-05
2.73496e-05
5.08274e-05
2.95421e-05
5.19716e-05
3.12522e-05
5.31728e-05
3.20128e-05
3.12475e-05
5.38936e-05
4.99832e-05
6.6423e-07
4.99339e-05
1.99545e-06
4.98577e-05
3.34804e-06
4.97619e-05
4.73589e-06
4.96544e-05
6.16916e-06
4.95427e-05
7.65607e-06
4.94349e-05
9.20375e-06
4.93396e-05
1.08189e-05
4.9267e-05
1.25084e-05
4.92304e-05
1.42796e-05
4.92469e-05
1.61399e-05
4.93396e-05
1.80947e-05
4.95389e-05
2.01441e-05
4.98832e-05
2.22753e-05
5.04169e-05
2.44497e-05
5.11821e-05
2.65844e-05
5.21971e-05
2.85271e-05
5.34159e-05
3.00335e-05
5.4662e-05
3.07667e-05
3.03584e-05
5.55511e-05
4.99906e-05
6.73645e-07
4.99617e-05
2.0243e-06
4.99165e-05
3.39331e-06
4.98599e-05
4.79242e-06
4.97984e-05
6.23075e-06
4.97386e-05
7.71579e-06
4.96886e-05
9.25381e-06
4.96572e-05
1.08503e-05
4.96555e-05
1.25101e-05
4.96974e-05
1.42377e-05
4.98008e-05
1.60365e-05
4.99885e-05
1.7907e-05
5.02891e-05
1.98435e-05
5.07368e-05
2.18276e-05
5.13672e-05
2.38192e-05
5.22093e-05
2.57424e-05
5.32662e-05
2.74702e-05
5.44854e-05
2.88143e-05
5.57181e-05
2.9534e-05
2.93864e-05
5.66901e-05
4.99968e-05
6.76845e-07
4.99859e-05
2.03521e-06
4.99688e-05
3.41044e-06
4.99489e-05
4.81226e-06
4.99312e-05
6.24847e-06
4.99216e-05
7.72542e-06
4.99272e-05
9.24817e-06
4.99569e-05
1.08206e-05
5.00214e-05
1.24456e-05
5.01343e-05
1.41248e-05
5.03128e-05
1.5858e-05
5.0578e-05
1.76419e-05
5.09551e-05
1.94663e-05
5.14725e-05
2.13103e-05
5.21573e-05
2.31344e-05
5.30276e-05
2.48721e-05
5.40777e-05
2.64201e-05
5.52566e-05
2.76353e-05
5.64456e-05
2.8345e-05
2.83841e-05
5.74479e-05
5.00021e-05
6.74728e-07
5.00069e-05
2.03039e-06
5.0015e-05
3.40233e-06
5.00287e-05
4.79857e-06
5.00516e-05
6.22557e-06
5.00886e-05
7.68844e-06
5.0146e-05
9.19082e-06
5.02316e-05
1.07349e-05
5.03556e-05
1.23216e-05
5.05302e-05
1.39501e-05
5.07711e-05
1.56172e-05
5.10966e-05
1.73163e-05
5.15281e-05
1.90348e-05
5.20879e-05
2.07505e-05
5.27958e-05
2.24265e-05
5.3662e-05
2.40058e-05
5.46764e-05
2.54057e-05
5.5794e-05
2.65177e-05
5.6922e-05
2.7217e-05
2.73875e-05
5.79187e-05
5.00067e-05
6.68008e-07
5.00254e-05
2.01172e-06
5.0056e-05
3.37168e-06
5.01e-05
4.75462e-06
5.01598e-05
6.16582e-06
5.02391e-05
7.60914e-06
5.0343e-05
9.08683e-06
5.04785e-05
1.05995e-05
5.0654e-05
1.21461e-05
5.08805e-05
1.37236e-05
5.11712e-05
1.53265e-05
5.15416e-05
1.69459e-05
5.20088e-05
1.85676e-05
5.25899e-05
2.01693e-05
5.32988e-05
2.17177e-05
5.41403e-05
2.31643e-05
5.51028e-05
2.44433e-05
5.61483e-05
2.54722e-05
5.72058e-05
2.61595e-05
2.64216e-05
5.81718e-05
5.00108e-05
6.57235e-07
5.00418e-05
1.98069e-06
5.00927e-05
3.32082e-06
5.01638e-05
4.68346e-06
5.02567e-05
6.07296e-06
5.03737e-05
7.49206e-06
5.05189e-05
8.94168e-06
5.06975e-05
1.04209e-05
5.09166e-05
1.1927e-05
5.11853e-05
1.34549e-05
5.15143e-05
1.49975e-05
5.1916e-05
1.65442e-05
5.24039e-05
1.80797e-05
5.29905e-05
1.95827e-05
5.36851e-05
2.10231e-05
5.44892e-05
2.23602e-05
5.53911e-05
2.35414e-05
5.636e-05
2.45033e-05
5.73415e-05
2.51779e-05
2.55034e-05
5.82597e-05
5.00144e-05
6.42787e-07
5.00567e-05
1.93841e-06
5.0126e-05
3.25156e-06
5.02218e-05
4.58768e-06
5.03443e-05
5.95043e-06
5.04948e-05
7.34156e-06
5.06758e-05
8.76074e-06
5.0891e-05
1.02057e-05
5.1146e-05
1.16719e-05
5.14478e-05
1.31532e-05
5.18048e-05
1.46405e-05
5.22267e-05
1.61223e-05
5.27233e-05
1.75831e-05
5.33037e-05
1.90023e-05
5.39737e-05
2.03532e-05
5.47327e-05
2.16012e-05
5.55701e-05
2.2704e-05
5.64609e-05
2.36124e-05
5.73639e-05
2.42749e-05
2.46445e-05
5.82229e-05
5.0018e-05
6.24836e-07
5.00709e-05
1.88541e-06
5.01575e-05
3.16502e-06
5.0276e-05
4.46921e-06
5.04253e-05
5.80113e-06
5.06052e-05
7.16157e-06
5.0817e-05
8.54903e-06
5.10628e-05
9.95981e-06
5.13466e-05
1.13882e-05
5.16734e-05
1.28264e-05
5.20495e-05
1.42644e-05
5.2482e-05
1.56898e-05
5.29781e-05
1.7087e-05
5.35438e-05
1.84366e-05
5.41824e-05
1.97146e-05
5.48922e-05
2.08914e-05
5.56637e-05
2.19326e-05
5.6477e-05
2.27991e-05
5.73008e-05
2.3451e-05
2.3852e-05
5.80933e-05
5.00216e-05
6.03267e-07
5.00854e-05
1.82162e-06
5.01888e-05
3.06162e-06
5.03287e-05
4.32931e-06
5.05024e-05
5.62737e-06
5.07084e-05
6.95556e-06
5.09463e-05
8.31112e-06
5.12172e-05
9.68899e-06
5.15232e-05
1.10822e-05
5.18679e-05
1.24817e-05
5.22556e-05
1.38767e-05
5.26912e-05
1.52541e-05
5.31796e-05
1.65986e-05
5.37245e-05
1.78917e-05
5.43275e-05
1.91116e-05
5.4986e-05
2.02329e-05
5.56919e-05
2.12267e-05
5.64294e-05
2.20616e-05
5.71748e-05
2.27057e-05
2.31301e-05
5.78966e-05
5.00257e-05
5.77569e-07
5.01011e-05
1.74618e-06
5.02218e-05
2.94096e-06
5.03825e-05
4.16863e-06
5.05788e-05
5.43107e-06
5.08076e-05
6.72669e-06
5.10675e-05
8.05126e-06
5.13581e-05
9.39834e-06
5.16806e-05
1.07597e-05
5.2037e-05
1.21253e-05
5.24299e-05
1.34837e-05
5.28626e-05
1.48214e-05
5.33379e-05
1.61233e-05
5.3858e-05
1.73717e-05
5.44228e-05
1.85467e-05
5.50297e-05
1.9626e-05
5.56716e-05
2.05849e-05
5.6336e-05
2.13972e-05
5.70048e-05
2.20369e-05
2.24804e-05
5.76545e-05
5.00309e-05
5.46694e-07
5.01197e-05
1.65735e-06
5.02586e-05
2.80203e-06
5.04397e-05
3.98755e-06
5.06567e-05
5.21409e-06
5.09053e-05
6.47811e-06
5.11829e-05
7.77362e-06
5.14885e-05
9.09272e-06
5.18222e-05
1.0426e-05
5.21848e-05
1.17627e-05
5.25779e-05
1.30907e-05
5.3003e-05
1.43963e-05
5.34616e-05
1.56647e-05
5.39543e-05
1.68789e-05
5.44804e-05
1.80207e-05
5.50368e-05
1.90697e-05
5.56173e-05
2.00043e-05
5.62122e-05
2.08023e-05
5.68077e-05
2.14415e-05
2.1902e-05
5.73861e-05
5.0038e-05
5.08731e-07
5.01429e-05
1.55246e-06
5.03013e-05
2.64364e-06
5.0502e-05
3.78684e-06
5.07372e-05
4.97888e-06
5.10018e-05
6.21347e-06
5.12929e-05
7.48256e-06
5.16088e-05
8.77683e-06
5.19489e-05
1.00859e-05
5.23134e-05
1.13982e-05
5.27026e-05
1.27014e-05
5.3117e-05
1.39819e-05
5.35569e-05
1.52248e-05
5.40217e-05
1.64141e-05
5.451e-05
1.75324e-05
5.50186e-05
1.85611e-05
5.55421e-05
1.94808e-05
5.60727e-05
2.02717e-05
5.65998e-05
2.09144e-05
2.13913e-05
5.71104e-05
5.00491e-05
4.59659e-07
5.0173e-05
1.42851e-06
5.03509e-05
2.46578e-06
5.05688e-05
3.56895e-06
5.08183e-05
4.72938e-06
5.10944e-05
5.93738e-06
5.13941e-05
7.18285e-06
5.17157e-05
8.45521e-06
5.20583e-05
9.74331e-06
5.24212e-05
1.10353e-05
5.2804e-05
1.23186e-05
5.32064e-05
1.35796e-05
5.36274e-05
1.48037e-05
5.40659e-05
1.59756e-05
5.45197e-05
1.70786e-05
5.49854e-05
1.80954e-05
5.54583e-05
1.90079e-05
5.59321e-05
1.97979e-05
5.63986e-05
2.04479e-05
2.09417e-05
5.68483e-05
5.00672e-05
3.92466e-07
5.02108e-05
1.28486e-06
5.04044e-05
2.27221e-06
5.06339e-05
3.33946e-06
5.08918e-05
4.47148e-06
5.11738e-05
5.65533e-06
5.14774e-05
6.87925e-06
5.18009e-05
8.13178e-06
5.21429e-05
9.40132e-06
5.25023e-05
1.06758e-05
5.28783e-05
1.19426e-05
5.32694e-05
1.31884e-05
5.36742e-05
1.43989e-05
5.40907e-05
1.55591e-05
5.45163e-05
1.66531e-05
5.49475e-05
1.76642e-05
5.53799e-05
1.85754e-05
5.58083e-05
1.93695e-05
5.62262e-05
2.003e-05
2.05414e-05
5.66265e-05
5.00843e-05
5.02435e-05
5.04446e-05
5.06781e-05
5.09384e-05
5.12219e-05
5.15261e-05
5.18493e-05
5.21899e-05
5.25465e-05
5.29177e-05
5.33017e-05
5.36965e-05
5.40998e-05
5.45084e-05
5.49189e-05
5.53272e-05
5.57284e-05
5.61171e-05
5.64875e-05
1.90965e-05
1.56766e-05
1.17518e-05
7.34468e-06
8.21577e-06
3.53607e-06
6.36264e-06
1.85313e-06
5.29099e-06
1.07165e-06
4.60883e-06
6.82158e-07
4.13755e-06
4.71282e-07
3.79174e-06
3.45811e-07
3.52795e-06
2.63786e-07
3.32234e-06
2.05614e-07
3.16073e-06
1.61607e-07
3.03411e-06
1.26622e-07
2.93636e-06
9.77442e-08
2.86309e-06
7.32713e-08
2.81085e-06
5.22433e-08
2.7766e-06
3.42487e-08
2.75716e-06
1.94441e-08
2.74891e-06
8.2472e-09
2.75029e-06
-1.38014e-09
-1.43004e-08
3.59272e-05
2.30112e-05
2.86513e-05
1.46206e-05
2.31066e-05
9.08077e-06
1.91786e-05
5.78116e-06
1.64171e-05
3.83308e-06
1.44396e-05
2.65965e-06
1.29843e-05
1.92662e-06
1.18842e-05
1.44594e-06
1.10342e-05
1.11375e-06
1.03675e-05
8.72314e-07
9.84041e-06
6.8872e-07
9.42349e-06
5.4354e-07
9.09627e-06
4.24967e-07
8.8438e-06
3.25744e-07
8.6545e-06
2.41541e-07
8.51861e-06
1.7014e-07
8.42695e-06
1.11104e-07
8.37001e-06
6.51795e-08
8.33803e-06
3.06016e-08
2.065e-09
4.46588e-05
2.64782e-05
3.95649e-05
1.97144e-05
3.44928e-05
1.41529e-05
3.01463e-05
1.01276e-05
2.66415e-05
7.33791e-06
2.38767e-05
5.42442e-06
2.1703e-05
4.10031e-06
1.99854e-05
3.16355e-06
1.8618e-05
2.48113e-06
1.75224e-05
1.96789e-06
1.66417e-05
1.56944e-06
1.59345e-05
1.2508e-06
1.53701e-05
9.89288e-07
1.49257e-05
7.70212e-07
1.45828e-05
5.84393e-07
1.43262e-05
4.26753e-07
1.41416e-05
2.95662e-07
1.40146e-05
1.92233e-07
1.39285e-05
1.1666e-07
6.64811e-08
4.9919e-05
2.80699e-05
4.66684e-05
2.29651e-05
4.27352e-05
1.80861e-05
3.88381e-05
1.40247e-05
3.53244e-05
1.08516e-05
3.23047e-05
8.44412e-06
2.97713e-05
6.6337e-06
2.76694e-05
5.2654e-06
2.59337e-05
4.2169e-06
2.45033e-05
3.39824e-06
2.33273e-05
2.74545e-06
2.23644e-05
2.21372e-06
2.15817e-05
1.77198e-06
2.09529e-05
1.39898e-06
2.04565e-05
1.08082e-06
2.00738e-05
8.09436e-07
1.97876e-05
5.81884e-07
1.958e-05
3.99887e-07
1.94299e-05
2.66762e-07
1.85202e-07
5.33177e-05
2.86458e-05
5.13924e-05
2.48904e-05
4.8603e-05
2.08755e-05
4.54701e-05
1.71577e-05
4.23565e-05
1.39652e-05
3.94653e-05
1.13353e-05
3.68854e-05
9.2136e-06
3.46375e-05
7.51326e-06
3.27076e-05
6.14686e-06
3.10667e-05
5.03906e-06
2.96825e-05
4.12964e-06
2.85238e-05
3.37243e-06
2.75628e-05
2.73303e-06
2.67752e-05
2.18656e-06
2.614e-05
1.71599e-06
2.56384e-05
1.31108e-06
2.52522e-05
9.68043e-07
2.49624e-05
6.8971e-07
2.47456e-05
4.83607e-07
3.60314e-07
5.55693e-05
2.86276e-05
5.45609e-05
2.58987e-05
5.27278e-05
2.27087e-05
5.03931e-05
1.94923e-05
4.78499e-05
1.65084e-05
4.53106e-05
1.38747e-05
4.29075e-05
1.16168e-05
4.07105e-05
9.71018e-06
3.87484e-05
8.10898e-06
3.70249e-05
6.76259e-06
3.55304e-05
5.62412e-06
3.42493e-05
4.65355e-06
3.31637e-05
3.81861e-06
3.22558e-05
3.09447e-06
3.15085e-05
2.46334e-06
3.09053e-05
1.91429e-06
3.04296e-05
1.44366e-06
3.00632e-05
1.05614e-06
2.97822e-05
7.646e-07
5.90323e-07
5.70646e-05
2.82531e-05
5.66761e-05
2.62872e-05
5.558e-05
2.38048e-05
5.39549e-05
2.11173e-05
5.2007e-05
1.84563e-05
4.99173e-05
1.59643e-05
4.78225e-05
1.37116e-05
4.58146e-05
1.17181e-05
4.39489e-05
9.97462e-06
4.22546e-05
8.45691e-06
4.0743e-05
7.1357e-06
3.94147e-05
5.98191e-06
3.82637e-05
4.96957e-06
3.72809e-05
4.07725e-06
3.64554e-05
3.28885e-06
3.57752e-05
2.59447e-06
3.52271e-05
1.99176e-06
3.47951e-05
1.48819e-06
3.44567e-05
1.10305e-06
8.70846e-07
5.80332e-05
2.76677e-05
5.80558e-05
2.62646e-05
5.75021e-05
2.43584e-05
5.64575e-05
2.21619e-05
5.50533e-05
1.98606e-05
5.34263e-05
1.75913e-05
5.16964e-05
1.54414e-05
4.99572e-05
1.34574e-05
4.82756e-05
1.16562e-05
4.66959e-05
1.00366e-05
4.52449e-05
8.58667e-06
4.39368e-05
7.28997e-06
4.27772e-05
6.1292e-06
4.17659e-05
5.08858e-06
4.0899e-05
4.15571e-06
4.01702e-05
3.32327e-06
3.95706e-05
2.59138e-06
3.90876e-05
1.97118e-06
3.87014e-05
1.48925e-06
1.19524e-06
5.86211e-05
2.69652e-05
5.89092e-05
2.59765e-05
5.87411e-05
2.45266e-05
5.81467e-05
2.27563e-05
5.72017e-05
2.08055e-05
5.60011e-05
1.87919e-05
5.46398e-05
1.68028e-05
5.32009e-05
1.48962e-05
5.17517e-05
1.31055e-05
5.03425e-05
1.14458e-05
4.90091e-05
9.92006e-06
4.77753e-05
8.52379e-06
4.66556e-05
7.24887e-06
4.56579e-05
6.08628e-06
4.47851e-05
5.02851e-06
4.40365e-05
4.07196e-06
4.34077e-05
3.22013e-06
4.28904e-05
2.48853e-06
4.2468e-05
1.91163e-06
1.55529e-06
5.89287e-05
2.62083e-05
5.93801e-05
2.55251e-05
5.94762e-05
2.44305e-05
5.92164e-05
2.30161e-05
5.86388e-05
2.13832e-05
5.78041e-05
1.96266e-05
5.6782e-05
1.78249e-05
5.56405e-05
1.60377e-05
5.44398e-05
1.43061e-05
5.32299e-05
1.26558e-05
5.20495e-05
1.11004e-05
5.09278e-05
9.6455e-06
4.98853e-05
8.29131e-06
4.8936e-05
7.03565e-06
4.80882e-05
5.87633e-06
4.7346e-05
4.81407e-06
4.67098e-05
3.85633e-06
4.6175e-05
3.02341e-06
4.57288e-05
2.35784e-06
1.94184e-06
5.90282e-05
2.54398e-05
5.95711e-05
2.49822e-05
5.98396e-05
2.4162e-05
5.98182e-05
2.30375e-05
5.9521e-05
2.16804e-05
5.89838e-05
2.01637e-05
5.82546e-05
1.85541e-05
5.73852e-05
1.69071e-05
5.6426e-05
1.52653e-05
5.54219e-05
1.36599e-05
5.44109e-05
1.21115e-05
5.34234e-05
1.0633e-05
5.24831e-05
9.23159e-06
5.16076e-05
7.91115e-06
5.08092e-05
6.6747e-06
5.00959e-05
5.52734e-06
4.94715e-05
4.48073e-06
4.89349e-05
3.56005e-06
4.84771e-05
2.81568e-06
2.34548e-06
5.89738e-05
2.46889e-05
5.95571e-05
2.43988e-05
5.99295e-05
2.37896e-05
6.00694e-05
2.28977e-05
5.9977e-05
2.17728e-05
5.96708e-05
2.04699e-05
5.91817e-05
1.90432e-05
5.85474e-05
1.75413e-05
5.78075e-05
1.60052e-05
5.70001e-05
1.44673e-05
5.61593e-05
1.29523e-05
5.53145e-05
1.14778e-05
5.44898e-05
1.00562e-05
5.37045e-05
8.69652e-06
5.29729e-05
7.40625e-06
5.23056e-05
6.19469e-06
5.17087e-05
5.07756e-06
5.1184e-05
4.08477e-06
5.07257e-05
3.27395e-06
2.75715e-06
5.88066e-05
2.39757e-05
5.93946e-05
2.38108e-05
5.98205e-05
2.33637e-05
6.00617e-05
2.26566e-05
6.0111e-05
2.17234e-05
5.9976e-05
2.06049e-05
5.96752e-05
1.93441e-05
5.92345e-05
1.7982e-05
5.86838e-05
1.65559e-05
5.80537e-05
1.50974e-05
5.73734e-05
1.36326e-05
5.66693e-05
1.21819e-05
5.59641e-05
1.07614e-05
5.52769e-05
9.38377e-06
5.46227e-05
8.06043e-06
5.4013e-05
6.80436e-06
5.34556e-05
5.63496e-06
5.29539e-05
4.5865e-06
5.25048e-05
3.72299e-06
3.16862e-06
5.85592e-05
2.3313e-05
5.91271e-05
2.32429e-05
5.957e-05
2.29208e-05
5.98669e-05
2.23597e-05
6.00077e-05
2.15826e-05
5.99932e-05
2.06194e-05
5.98335e-05
1.95038e-05
5.95457e-05
1.82698e-05
5.91515e-05
1.69502e-05
5.86744e-05
1.55745e-05
5.81382e-05
1.41688e-05
5.75655e-05
1.27547e-05
5.69764e-05
1.13504e-05
5.63885e-05
9.97164e-06
5.58163e-05
8.63264e-06
5.52712e-05
7.34953e-06
5.47611e-05
6.14498e-06
5.42906e-05
5.05704e-06
5.38586e-05
4.15505e-06
3.57283e-06
5.82585e-05
2.27091e-05
5.87896e-05
2.27118e-05
5.92238e-05
2.24866e-05
5.95429e-05
2.20405e-05
5.97363e-05
2.13892e-05
5.98013e-05
2.05545e-05
5.97426e-05
1.95625e-05
5.95709e-05
1.84415e-05
5.93013e-05
1.72197e-05
5.89515e-05
1.59244e-05
5.85399e-05
1.45803e-05
5.80851e-05
1.32095e-05
5.76039e-05
1.18316e-05
5.71117e-05
1.04639e-05
5.66213e-05
9.12301e-06
5.61432e-05
7.82766e-06
5.5685e-05
6.60322e-06
5.52511e-05
5.49092e-06
5.48418e-05
4.56436e-06
3.96425e-06
5.79277e-05
2.21675e-05
5.84122e-05
2.22274e-05
5.88208e-05
2.20779e-05
5.91387e-05
2.17226e-05
5.9356e-05
2.11718e-05
5.94689e-05
2.04416e-05
5.94787e-05
1.95527e-05
5.93918e-05
1.85283e-05
5.92185e-05
1.73931e-05
5.89713e-05
1.61716e-05
5.86643e-05
1.48873e-05
5.83117e-05
1.35621e-05
5.79273e-05
1.2216e-05
5.75235e-05
1.08677e-05
5.71111e-05
9.53539e-06
5.6699e-05
8.23977e-06
5.62937e-05
7.00851e-06
5.58992e-05
5.88538e-06
5.55164e-05
4.94716e-06
4.33911e-06
5.759e-05
2.16879e-05
5.80235e-05
2.17939e-05
5.83969e-05
2.17045e-05
5.86986e-05
2.14209e-05
5.89205e-05
2.095e-05
5.90582e-05
2.03039e-05
5.91118e-05
1.94991e-05
5.90847e-05
1.85554e-05
5.89835e-05
1.74943e-05
5.88169e-05
1.63381e-05
5.85952e-05
1.51091e-05
5.83287e-05
1.38285e-05
5.8028e-05
1.25167e-05
5.77028e-05
1.11929e-05
5.73616e-05
9.87665e-06
5.70113e-05
8.59007e-06
5.66571e-05
7.36266e-06
5.63022e-05
6.24024e-06
5.59475e-05
5.30192e-06
4.69528e-06
5.72705e-05
2.12657e-05
5.76543e-05
2.141e-05
5.79897e-05
2.13691e-05
5.8268e-05
2.11426e-05
5.84829e-05
2.07351e-05
5.86306e-05
2.01562e-05
5.87103e-05
1.94194e-05
5.87238e-05
1.85419e-05
5.86751e-05
1.7543e-05
5.85699e-05
1.64433e-05
5.84153e-05
1.52638e-05
5.82185e-05
1.40253e-05
5.79871e-05
1.27481e-05
5.77282e-05
1.14518e-05
5.74482e-05
1.01567e-05
5.71523e-05
8.88599e-06
5.68443e-05
7.67065e-06
5.65266e-05
6.55793e-06
5.61991e-05
5.62947e-06
5.03161e-06
5.70014e-05
2.08907e-05
5.73433e-05
2.10681e-05
5.76449e-05
2.10676e-05
5.79e-05
2.08875e-05
5.81039e-05
2.05313e-05
5.82536e-05
2.00065e-05
5.8348e-05
1.9325e-05
5.83878e-05
1.85021e-05
5.83754e-05
1.75554e-05
5.83143e-05
1.65044e-05
5.82089e-05
1.53692e-05
5.80642e-05
1.417e-05
5.78853e-05
1.29269e-05
5.76774e-05
1.16597e-05
5.74449e-05
1.03891e-05
5.71919e-05
9.139e-06
5.69212e-05
7.94133e-06
5.66354e-05
6.8438e-06
5.63356e-05
5.92926e-06
5.35301e-06
5.68337e-05
5.71497e-05
5.743e-05
5.767e-05
5.7866e-05
5.80155e-05
5.81174e-05
5.81718e-05
5.81799e-05
5.81441e-05
5.80673e-05
5.79529e-05
5.78048e-05
5.76265e-05
5.74219e-05
5.71942e-05
5.69468e-05
5.66818e-05
5.63997e-05
)
;

boundaryField
{
    zeroGradPlanes
    {
        type            calculated;
        value           nonuniform List<scalar> 
80
(
-3.59596e-07
-1.3135e-06
-2.41987e-06
-3.63794e-06
-4.95433e-06
-6.3625e-06
-7.86115e-06
-9.45364e-06
-1.1148e-05
-1.29573e-05
-1.49003e-05
-1.70006e-05
-1.92846e-05
-2.17742e-05
-2.44676e-05
-2.73008e-05
-3.00615e-05
-3.21648e-05
-3.20561e-05
-2.63909e-05
2.76459e-06
8.32167e-06
1.38641e-05
1.93111e-05
2.45705e-05
2.95522e-05
3.41761e-05
3.8377e-05
4.21079e-05
4.53422e-05
4.80734e-05
5.03141e-05
5.20934e-05
5.34543e-05
5.44504e-05
5.51416e-05
5.55913e-05
5.58628e-05
5.60142e-05
5.60888e-05
3.08162e-07
1.12563e-06
2.07116e-06
3.10594e-06
4.21116e-06
5.37186e-06
6.57505e-06
7.80863e-06
9.06072e-06
1.03192e-05
1.15715e-05
1.28044e-05
1.40041e-05
1.51559e-05
1.62444e-05
1.72537e-05
1.81671e-05
1.89684e-05
1.96412e-05
2.01709e-05
2.05446e-05
2.07521e-05
2.07872e-05
2.06475e-05
2.03353e-05
1.9857e-05
1.92231e-05
1.84477e-05
1.75472e-05
1.65402e-05
1.5446e-05
1.42844e-05
1.30751e-05
1.18379e-05
1.05938e-05
9.3667e-06
8.18871e-06
7.1088e-06
6.21135e-06
5.66394e-06
)
;
    }
    inlet
    {
        type            calculated;
        value           nonuniform List<scalar> 
20
(
-5e-05
-5e-05
-5e-05
-5e-05
-5e-05
-5e-05
-5e-05
-5e-05
-5e-05
-5e-05
-5e-05
-5e-05
-5e-05
-5e-05
-5e-05
-5e-05
-5e-05
-5e-05
-5e-05
-5e-05
)
;
    }
    plate
    {
        type            calculated;
        value           uniform 0;
    }
    frontAndBack
    {
        type            empty;
        value           nonuniform 0();
    }
}


// ************************************************************************* //
