/*--------------------------------*- C++ -*----------------------------------*\
| =========                 |                                                 |
| \\      /  F ield         | OpenFOAM: The Open Source CFD Toolbox           |
|  \\    /   O peration     | Version:  v1906                                 |
|   \\  /    A nd           | Web:      www.OpenFOAM.com                      |
|    \\/     M anipulation  |                                                 |
\*---------------------------------------------------------------------------*/
FoamFile
{
    version     2.0;
    format      ascii;
    class       volVectorField;
    location    "0.1";
    object      U;
}
// * * * * * * * * * * * * * * * * * * * * * * * * * * * * * * * * * * * * * //

dimensions      [0 1 -1 0 0 0 0];


internalField   nonuniform List<vector> 
800
(
(0.99925 0.00800785 0)
(0.99657 0.027573 0)
(0.992565 0.0498697 0)
(0.987862 0.0743804 0)
(0.982696 0.100841 0)
(0.977145 0.129128 0)
(0.971238 0.159222 0)
(0.964986 0.191199 0)
(0.95838 0.225227 0)
(0.951389 0.261578 0)
(0.943954 0.300637 0)
(0.935985 0.342898 0)
(0.927343 0.388925 0)
(0.917814 0.43921 0)
(0.907093 0.493827 0)
(0.894476 0.551662 0)
(0.87772 0.608877 0)
(0.8546 0.655413 0)
(0.837559 0.664041 0)
(0.822173 0.56278 0)
(0.999464 0.00981553 0)
(0.997227 0.0311779 0)
(0.993561 0.054504 0)
(0.989084 0.0796903 0)
(0.984125 0.106646 0)
(0.978793 0.135334 0)
(0.973142 0.165786 0)
(0.967206 0.198108 0)
(0.960998 0.232491 0)
(0.954521 0.269225 0)
(0.947771 0.308718 0)
(0.940744 0.351487 0)
(0.933442 0.398129 0)
(0.925891 0.449188 0)
(0.9182 0.504836 0)
(0.910554 0.564136 0)
(0.90279 0.623699 0)
(0.895221 0.675161 0)
(0.896108 0.697246 0)
(0.904197 0.63407 0)
(0.99967 0.0112407 0)
(0.997973 0.0343691 0)
(0.994858 0.0587725 0)
(0.990889 0.0846655 0)
(0.98641 0.112118 0)
(0.981574 0.141184 0)
(0.976473 0.171947 0)
(0.971179 0.204539 0)
(0.965754 0.239165 0)
(0.960261 0.276117 0)
(0.954786 0.315792 0)
(0.949458 0.358683 0)
(0.944488 0.40533 0)
(0.94022 0.456184 0)
(0.937232 0.511268 0)
(0.936439 0.569433 0)
(0.938949 0.626991 0)
(0.94603 0.675502 0)
(0.960597 0.697059 0)
(0.976542 0.654016 0)
(0.999788 0.0121238 0)
(0.998535 0.0366259 0)
(0.996059 0.0619883 0)
(0.992781 0.088532 0)
(0.989008 0.116423 0)
(0.98491 0.145783 0)
(0.980616 0.176732 0)
(0.976238 0.209422 0)
(0.97189 0.244053 0)
(0.967705 0.280896 0)
(0.96386 0.320298 0)
(0.960614 0.362663 0)
(0.958351 0.408393 0)
(0.957646 0.457718 0)
(0.959344 0.510353 0)
(0.964609 0.564798 0)
(0.974762 0.617135 0)
(0.990806 0.659333 0)
(1.01271 0.677014 0)
(1.0331 0.647149 0)
(0.99986 0.0127302 0)
(0.998966 0.0383067 0)
(0.997116 0.0644977 0)
(0.994597 0.0916303 0)
(0.991653 0.119911 0)
(0.988452 0.149498 0)
(0.985141 0.180536 0)
(0.981866 0.213179 0)
(0.978783 0.247613 0)
(0.976084 0.284066 0)
(0.974018 0.32281 0)
(0.972936 0.364134 0)
(0.973327 0.408267 0)
(0.975873 0.455207 0)
(0.981482 0.504396 0)
(0.991269 0.55414 0)
(1.00631 0.600701 0)
(1.02704 0.637223 0)
(1.05216 0.65289 0)
(1.07499 0.633561 0)
(0.999913 0.0131479 0)
(0.999318 0.0395128 0)
(0.998046 0.0663486 0)
(0.996281 0.0939508 0)
(0.994208 0.122531 0)
(0.991979 0.152257 0)
(0.989745 0.183277 0)
(0.987668 0.215737 0)
(0.985935 0.249793 0)
(0.984772 0.285621 0)
(0.984478 0.323409 0)
(0.985446 0.363325 0)
(0.988204 0.405435 0)
(0.993441 0.449549 0)
(1.00201 0.494939 0)
(1.01482 0.539895 0)
(1.03263 0.581111 0)
(1.05539 0.613086 0)
(1.08134 0.627965 0)
(1.10505 0.616785 0)
(0.999954 0.0134057 0)
(0.999613 0.0402843 0)
(0.998861 0.0675535 0)
(0.997811 0.0954667 0)
(0.996597 0.124219 0)
(0.995348 0.15397 0)
(0.994211 0.184856 0)
(0.993349 0.217001 0)
(0.992959 0.250524 0)
(0.993287 0.285544 0)
(0.994644 0.322166 0)
(0.997431 0.360446 0)
(1.00216 0.400319 0)
(1.00947 0.441462 0)
(1.02009 0.483072 0)
(1.03471 0.523546 0)
(1.05376 0.560093 0)
(1.07694 0.58844 0)
(1.10246 0.602961 0)
(1.1261 0.597819 0)
(0.999988 0.0135281 0)
(0.999864 0.0406717 0)
(0.999575 0.068164 0)
(0.999183 0.0962164 0)
(0.998782 0.124998 0)
(0.998477 0.15465 0)
(0.998399 0.185285 0)
(0.998705 0.216998 0)
(0.999589 0.249868 0)
(1.00129 0.283955 0)
(1.00411 0.319288 0)
(1.00844 0.355833 0)
(1.01473 0.393425 0)
(1.02353 0.431663 0)
(1.03543 0.469739 0)
(1.05093 0.506222 0)
(1.07023 0.538827 0)
(1.09289 0.56429 0)
(1.11733 0.57859 0)
(1.14035 0.577812 0)
(1.00002 0.0135359 0)
(1.00008 0.0407236 0)
(1.0002 0.0682408 0)
(1.00041 0.096262 0)
(1.00075 0.124929 0)
(1.00132 0.154357 0)
(1.00223 0.184632 0)
(1.00362 0.215817 0)
(1.00566 0.247948 0)
(1.00858 0.281031 0)
(1.01265 0.315033 0)
(1.01822 0.349846 0)
(1.02568 0.385239 0)
(1.03548 0.420772 0)
(1.04808 0.45568 0)
(1.0638 0.488724 0)
(1.08271 0.518064 0)
(1.10434 0.54123 0)
(1.12737 0.555327 0)
(1.1494 0.557646 0)
(1.00004 0.013445 0)
(1.00027 0.0404809 0)
(1.00075 0.0678413 0)
(1.00149 0.0956703 0)
(1.00251 0.124084 0)
(1.00388 0.153172 0)
(1.00569 0.182993 0)
(1.00805 0.213575 0)
(1.01111 0.244914 0)
(1.01507 0.276971 0)
(1.02017 0.309658 0)
(1.0267 0.342816 0)
(1.03499 0.376169 0)
(1.04539 0.409272 0)
(1.05823 0.441419 0)
(1.07374 0.471561 0)
(1.09188 0.49823 0)
(1.11221 0.519552 0)
(1.13367 0.533421 0)
(1.15447 0.537905 0)
(1.00006 0.0132683 0)
(1.00043 0.039978 0)
(1.00124 0.0670164 0)
(1.00246 0.0945056 0)
(1.00409 0.122541 0)
(1.00618 0.151187 0)
(1.00878 0.180475 0)
(1.01199 0.210402 0)
(1.01592 0.240929 0)
(1.02075 0.271974 0)
(1.02667 0.303408 0)
(1.03392 0.335033 0)
(1.04275 0.366552 0)
(1.05343 0.397526 0)
(1.06621 0.427321 0)
(1.08121 0.455053 0)
(1.09836 0.479551 0)
(1.11727 0.499386 0)
(1.13709 0.513003 0)
(1.1565 0.518989 0)
(1.00008 0.013015 0)
(1.00058 0.0392411 0)
(1.00169 0.0658081 0)
(1.00335 0.0928253 0)
(1.00553 0.120372 0)
(1.00825 0.148491 0)
(1.01155 0.177189 0)
(1.01549 0.206433 0)
(1.02016 0.236151 0)
(1.02569 0.266228 0)
(1.03223 0.296501 0)
(1.03997 0.326746 0)
(1.04911 0.356654 0)
(1.05984 0.385806 0)
(1.07232 0.413633 0)
(1.08663 0.439391 0)
(1.10267 0.462142 0)
(1.12011 0.480783 0)
(1.13829 0.494145 0)
(1.15622 0.501169 0)
(1.00009 0.0126908 0)
(1.00073 0.0382871 0)
(1.00211 0.0642464 0)
(1.00418 0.0906752 0)
(1.00686 0.117641 0)
(1.01015 0.145168 0)
(1.01406 0.173239 0)
(1.01862 0.201794 0)
(1.0239 0.23073 0)
(1.02997 0.259905 0)
(1.03697 0.289129 0)
(1.04502 0.31816 0)
(1.05427 0.346686 0)
(1.06486 0.374308 0)
(1.0769 0.400519 0)
(1.0904 0.424686 0)
(1.10528 0.446049 0)
(1.12125 0.463744 0)
(1.1378 0.476874 0)
(1.15419 0.484625 0)
(1.00011 0.0122966 0)
(1.00087 0.0371209 0)
(1.00254 0.0623468 0)
(1.005 0.0880872 0)
(1.00815 0.1144 0)
(1.01195 0.141293 0)
(1.01639 0.168722 0)
(1.02147 0.196601 0)
(1.02722 0.224802 0)
(1.03371 0.253157 0)
(1.04101 0.281456 0)
(1.04922 0.309444 0)
(1.05844 0.33681 0)
(1.06875 0.363176 0)
(1.08023 0.388086 0)
(1.09287 0.410996 0)
(1.10656 0.431279 0)
(1.12109 0.448243 0)
(1.13606 0.461186 0)
(1.1509 0.469467 0)
(1.00013 0.0118261 0)
(1.00104 0.0357326 0)
(1.003 0.0601078 0)
(1.00585 0.0850775 0)
(1.00944 0.110689 0)
(1.01371 0.136927 0)
(1.0186 0.163722 0)
(1.0241 0.190959 0)
(1.03023 0.218487 0)
(1.037 0.246115 0)
(1.04448 0.273618 0)
(1.05272 0.300731 0)
(1.06179 0.327147 0)
(1.07173 0.352507 0)
(1.08258 0.376396 0)
(1.09432 0.398339 0)
(1.10686 0.417808 0)
(1.11999 0.434235 0)
(1.13343 0.447054 0)
(1.14674 0.455747 0)
(1.00017 0.0112657 0)
(1.00125 0.0340993 0)
(1.00354 0.057517 0)
(1.00679 0.0816571 0)
(1.0108 0.106546 0)
(1.01547 0.132135 0)
(1.02074 0.158325 0)
(1.02657 0.184972 0)
(1.03297 0.2119 0)
(1.03992 0.2389 0)
(1.04747 0.265734 0)
(1.05564 0.292132 0)
(1.06447 0.317792 0)
(1.07399 0.34237 0)
(1.08418 0.365485 0)
(1.09503 0.386714 0)
(1.10643 0.405599 0)
(1.11825 0.421663 0)
(1.13023 0.434432 0)
(1.14206 0.443476 0)
(1.00021 0.0105931 0)
(1.00152 0.0321929 0)
(1.00418 0.0545728 0)
(1.00784 0.0778616 0)
(1.01223 0.102041 0)
(1.01725 0.127017 0)
(1.02282 0.152651 0)
(1.02889 0.178771 0)
(1.03545 0.205177 0)
(1.0425 0.231648 0)
(1.05003 0.257934 0)
(1.05807 0.283765 0)
(1.06661 0.308842 0)
(1.07566 0.332836 0)
(1.0852 0.355391 0)
(1.09519 0.376123 0)
(1.10554 0.394623 0)
(1.11613 0.410476 0)
(1.12676 0.423273 0)
(1.13721 0.432644 0)
(1.0003 0.00973136 0)
(1.00192 0.0299162 0)
(1.00498 0.0512164 0)
(1.00901 0.0736745 0)
(1.01372 0.0971883 0)
(1.019 0.121602 0)
(1.02477 0.146736 0)
(1.03099 0.172389 0)
(1.03763 0.198346 0)
(1.04469 0.224372 0)
(1.05215 0.250215 0)
(1.06001 0.275603 0)
(1.06824 0.300243 0)
(1.07685 0.323819 0)
(1.08578 0.345994 0)
(1.09499 0.366409 0)
(1.10441 0.384693 0)
(1.11391 0.400469 0)
(1.12336 0.413372 0)
(1.13257 0.423068 0)
(1.00046 0.00844584 0)
(1.00248 0.0269454 0)
(1.0059 0.0471175 0)
(1.01021 0.0687594 0)
(1.01512 0.0916339 0)
(1.02054 0.115511 0)
(1.02641 0.14017 0)
(1.03268 0.165386 0)
(1.03934 0.190932 0)
(1.04636 0.216566 0)
(1.05372 0.242037 0)
(1.0614 0.267074 0)
(1.06937 0.291391 0)
(1.07759 0.314682 0)
(1.08603 0.336624 0)
(1.09461 0.35688 0)
(1.10327 0.375101 0)
(1.11191 0.390936 0)
(1.12041 0.404045 0)
(1.12863 0.414119 0)
(1.00063 0.00687978 0)
(1.003 0.0237392 0)
(1.00664 0.0429049 0)
(1.01107 0.0638426 0)
(1.01604 0.0861737 0)
(1.02149 0.109602 0)
(1.02738 0.133869 0)
(1.03366 0.158737 0)
(1.0403 0.183965 0)
(1.04728 0.209312 0)
(1.05457 0.234524 0)
(1.06213 0.259334 0)
(1.06993 0.283464 0)
(1.07792 0.306615 0)
(1.08605 0.328478 0)
(1.09426 0.348726 0)
(1.10247 0.367028 0)
(1.1106 0.383049 0)
(1.11852 0.396465 0)
(1.12615 0.406976 0)
(0.465378 0.221603 0)
(0.294122 0.0864367 0)
(0.192824 0.0344221 0)
(0.141203 0.0147191 0)
(0.114069 0.0070023 0)
(0.0976781 0.00380579 0)
(0.0866744 0.00237431 0)
(0.0787782 0.00165462 0)
(0.0728397 0.00123596 0)
(0.0682403 0.00095512 0)
(0.0646279 0.000744562 0)
(0.0617855 0.000574227 0)
(0.0595698 0.00042949 0)
(0.0578805 0.000302855 0)
(0.0566425 0.00019084 0)
(0.055794 9.30913e-05 0)
(0.0552714 1.30381e-05 0)
(0.0549968 -4.60617e-05 0)
(0.0549641 -0.000108965 0)
(0.0553133 -0.000224842 0)
(0.790288 0.410297 0)
(0.64298 0.228681 0)
(0.5111 0.124612 0)
(0.416534 0.0709041 0)
(0.351533 0.0431084 0)
(0.305629 0.0281465 0)
(0.272226 0.0196151 0)
(0.247263 0.0143895 0)
(0.228149 0.0109382 0)
(0.213237 0.00849505 0)
(0.20147 0.00666041 0)
(0.192149 0.00521496 0)
(0.184793 0.00403241 0)
(0.179061 0.00303833 0)
(0.174695 0.00219034 0)
(0.171492 0.00146886 0)
(0.169261 0.000874588 0)
(0.167787 0.000417812 0)
(0.16695 5.16949e-05 0)
(0.167053 -0.000326666 0)
(0.937209 0.506841 0)
(0.846047 0.351448 0)
(0.738776 0.235578 0)
(0.642496 0.158835 0)
(0.564083 0.109601 0)
(0.502045 0.0780213 0)
(0.453323 0.0573712 0)
(0.414964 0.043409 0)
(0.384542 0.0335792 0)
(0.36023 0.026364 0)
(0.340698 0.0208539 0)
(0.32499 0.0164929 0)
(0.312402 0.0129351 0)
(0.302414 0.00996414 0)
(0.294621 0.00744863 0)
(0.288702 0.00531891 0)
(0.284364 0.00355616 0)
(0.281269 0.00217772 0)
(0.279167 0.00116033 0)
(0.278591 0.000416463 0)
(1.02297 0.552127 0)
(0.971696 0.434157 0)
(0.895607 0.328142 0)
(0.814601 0.244847 0)
(0.739431 0.183136 0)
(0.6739 0.138536 0)
(0.618535 0.106407 0)
(0.572475 0.0829909 0)
(0.534402 0.06557 0)
(0.503009 0.052279 0)
(0.477166 0.0418648 0)
(0.455955 0.0334898 0)
(0.438642 0.0265949 0)
(0.424643 0.0208099 0)
(0.413487 0.0158993 0)
(0.404788 0.0117294 0)
(0.398193 0.0082534 0)
(0.39328 0.00549764 0)
(0.38969 0.00349078 0)
(0.388225 0.00221947 0)
(1.07868 0.570893 0)
(1.05275 0.483903 0)
(1.00301 0.394879 0)
(0.941489 0.315907 0)
(0.877624 0.250803 0)
(0.816884 0.199169 0)
(0.76192 0.15892 0)
(0.713634 0.127622 0)
(0.671964 0.103109 0)
(0.636406 0.0836538 0)
(0.606311 0.0679539 0)
(0.581025 0.0550567 0)
(0.559954 0.044279 0)
(0.542578 0.0351415 0)
(0.528446 0.027324 0)
(0.517173 0.020637 0)
(0.508399 0.0150094 0)
(0.501664 0.0104831 0)
(0.496532 0.00716029 0)
(0.494091 0.00515629 0)
(1.11596 0.574973 0)
(1.10605 0.511517 0)
(1.07627 0.439961 0)
(1.03298 0.370279 0)
(0.982917 0.307733 0)
(0.931242 0.254209 0)
(0.881325 0.209611 0)
(0.835087 0.172906 0)
(0.793421 0.142767 0)
(0.75658 0.117911 0)
(0.724463 0.0972321 0)
(0.69679 0.0798382 0)
(0.67321 0.0650372 0)
(0.653361 0.0523137 0)
(0.63689 0.0413064 0)
(0.62347 0.031795 0)
(0.612784 0.0236992 0)
(0.60438 0.0170898 0)
(0.597782 0.0121644 0)
(0.594374 0.0092255 0)
(1.14095 0.570167 0)
(1.14117 0.524293 0)
(1.12572 0.468221 0)
(1.0975 0.409284 0)
(1.06078 0.352522 0)
(1.0196 0.300733 0)
(0.97719 0.255038 0)
(0.935799 0.215494 0)
(0.896856 0.181591 0)
(0.861159 0.152594 0)
(0.829071 0.127733 0)
(0.800686 0.106303 0)
(0.77593 0.0877043 0)
(0.754642 0.0714604 0)
(0.736614 0.0572207 0)
(0.721625 0.0447684 0)
(0.709435 0.0340371 0)
(0.699635 0.0251436 0)
(0.691745 0.0184042 0)
(0.687449 0.0143638 0)
(1.15725 0.559995 0)
(1.16379 0.52712 0)
(1.1583 0.483867 0)
(1.14175 0.435325 0)
(1.11658 0.385676 0)
(1.08561 0.337811 0)
(1.05151 0.293413 0)
(1.01641 0.253232 0)
(0.98193 0.2174 0)
(0.949141 0.185691 0)
(0.918734 0.157703 0)
(0.891096 0.13298 0)
(0.866406 0.111083 0)
(0.844707 0.0916323 0)
(0.825949 0.0743337 0)
(0.810035 0.0590087 0)
(0.796827 0.0456295 0)
(0.785983 0.0343781 0)
(0.777047 0.0257095 0)
(0.772 0.0204569 0)
(1.16715 0.546735 0)
(1.17751 0.523424 0)
(1.17875 0.49041 0)
(1.17085 0.4511 0)
(1.15502 0.408711 0)
(1.13308 0.365822 0)
(1.10701 0.32424 0)
(1.07863 0.285069 0)
(1.04945 0.248861 0)
(1.02065 0.215788 0)
(0.993081 0.185779 0)
(0.967314 0.158633 0)
(0.943724 0.134097 0)
(0.922524 0.111921 0)
(0.903813 0.0919029 0)
(0.887615 0.0739282 0)
(0.873899 0.0580297 0)
(0.862398 0.0444711 0)
(0.852701 0.0338609 0)
(0.847078 0.0273517 0)
(1.17227 0.531884 0)
(1.18475 0.515612 0)
(1.19037 0.490613 0)
(1.18864 0.459115 0)
(1.18001 0.423483 0)
(1.16555 0.385838 0)
(1.14663 0.347869 0)
(1.12467 0.310786 0)
(1.10098 0.275371 0)
(1.07665 0.242061 0)
(1.05258 0.211042 0)
(1.02943 0.182337 0)
(1.0077 0.155875 0)
(0.987731 0.131546 0)
(0.969726 0.109252 0)
(0.953821 0.0889626 0)
(0.940077 0.0707864 0)
(0.928304 0.0550799 0)
(0.918145 0.0426132 0)
(0.912145 0.0348703 0)
(1.1738 0.516455 0)
(1.18725 0.505373 0)
(1.19553 0.486578 0)
(1.19801 0.4615 0)
(1.1947 0.431823 0)
(1.18614 0.399211 0)
(1.17322 0.365123 0)
(1.15698 0.330727 0)
(1.13845 0.296885 0)
(1.11861 0.264186 0)
(1.09829 0.232993 0)
(1.07817 0.203502 0)
(1.05879 0.175797 0)
(1.04056 0.1499 0)
(1.02376 0.12582 0)
(1.00862 0.103618 0)
(0.995269 0.0834834 0)
(0.983575 0.0658726 0)
(0.973242 0.0517164 0)
(0.967069 0.0428238 0)
(1.17264 0.501141 0)
(1.18625 0.493902 0)
(1.19598 0.479881 0)
(1.20117 0.459979 0)
(1.20159 0.435373 0)
(1.19748 0.407325 0)
(1.18936 0.377037 0)
(1.17793 0.345558 0)
(1.16399 0.313736 0)
(1.14833 0.282222 0)
(1.13169 0.251483 0)
(1.1147 0.221836 0)
(1.0979 0.193486 0)
(1.08171 0.166567 0)
(1.06648 0.141189 0)
(1.05245 0.117497 0)
(1.03982 0.0957665 0)
(1.0285 0.0765504 0)
(1.01825 0.0609326 0)
(1.0121 0.051024 0)
(1.1695 0.48642 0)
(1.18273 0.482042 0)
(1.19302 0.471687 0)
(1.19977 0.455911 0)
(1.20268 0.435522 0)
(1.20176 0.41146 0)
(1.19729 0.384685 0)
(1.18973 0.356095 0)
(1.17966 0.326477 0)
(1.1677 0.296481 0)
(1.15446 0.266622 0)
(1.14049 0.237291 0)
(1.12629 0.208781 0)
(1.11228 0.181313 0)
(1.0988 0.155082 0)
(1.08612 0.130312 0)
(1.07445 0.107358 0)
(1.06374 0.0868636 0)
(1.05379 0.0700504 0)
(1.04784 0.0592955 0)
(1.16493 0.47261 0)
(1.17741 0.470384 0)
(1.18765 0.462849 0)
(1.19513 0.450337 0)
(1.19953 0.4334 0)
(1.20077 0.412726 0)
(1.19896 0.38907 0)
(1.19439 0.363181 0)
(1.18745 0.335759 0)
(1.17862 0.307421 0)
(1.16837 0.27869 0)
(1.15717 0.249997 0)
(1.14546 0.221689 0)
(1.13361 0.194053 0)
(1.12194 0.167353 0)
(1.11072 0.141881 0)
(1.10017 0.118061 0)
(1.09023 0.0966194 0)
(1.08076 0.0788949 0)
(1.07514 0.0674847 0)
(1.15942 0.459914 0)
(1.1709 0.459329 0)
(1.18066 0.453973 0)
(1.18827 0.444037 0)
(1.19344 0.429891 0)
(1.19602 0.41204 0)
(1.19604 0.391071 0)
(1.19367 0.367603 0)
(1.18917 0.342244 0)
(1.18289 0.315561 0)
(1.17518 0.288064 0)
(1.16643 0.260196 0)
(1.15699 0.232339 0)
(1.14718 0.204824 0)
(1.13729 0.177967 0)
(1.12757 0.152117 0)
(1.1182 0.127758 0)
(1.10914 0.105685 0)
(1.10026 0.0873339 0)
(1.09508 0.0754673 0)
(1.15337 0.448451 0)
(1.16373 0.449141 0)
(1.17275 0.445483 0)
(1.18008 0.437576 0)
(1.18547 0.425668 0)
(1.18878 0.41013 0)
(1.18998 0.391421 0)
(1.18917 0.370051 0)
(1.18651 0.346544 0)
(1.18224 0.321417 0)
(1.17662 0.295152 0)
(1.16996 0.268193 0)
(1.16252 0.240936 0)
(1.15458 0.213744 0)
(1.14636 0.18697 0)
(1.13809 0.161009 0)
(1.12991 0.136394 0)
(1.12177 0.113978 0)
(1.11355 0.0952712 0)
(1.10889 0.0831438 0)
(1.14719 0.438283 0)
(1.1564 0.439984 0)
(1.16453 0.437659 0)
(1.17134 0.431348 0)
(1.17661 0.421218 0)
(1.18022 0.407544 0)
(1.18212 0.390691 0)
(1.18236 0.371084 0)
(1.18104 0.349179 0)
(1.17831 0.325444 0)
(1.17438 0.300335 0)
(1.16944 0.274285 0)
(1.16372 0.247698 0)
(1.15741 0.220955 0)
(1.1507 0.194438 0)
(1.14376 0.168574 0)
(1.13672 0.143939 0)
(1.12949 0.121431 0)
(1.12196 0.102611 0)
(1.11784 0.0904123 0)
(1.14135 0.429278 0)
(1.14946 0.431803 0)
(1.15671 0.430539 0)
(1.16288 0.425489 0)
(1.16784 0.416764 0)
(1.17148 0.404576 0)
(1.17375 0.389224 0)
(1.17467 0.371067 0)
(1.17429 0.350514 0)
(1.17272 0.32799 0)
(1.17009 0.303927 0)
(1.16653 0.278747 0)
(1.16221 0.252854 0)
(1.15728 0.226641 0)
(1.15185 0.200506 0)
(1.14608 0.174905 0)
(1.14005 0.150445 0)
(1.13364 0.128058 0)
(1.12678 0.10935 0)
(1.1232 0.0973072 0)
(1.13642 0.420893 0)
(1.14363 0.424168 0)
(1.1501 0.423829 0)
(1.1557 0.419856 0)
(1.16031 0.412321 0)
(1.16386 0.401393 0)
(1.1663 0.387323 0)
(1.16763 0.370427 0)
(1.16789 0.351074 0)
(1.16714 0.329659 0)
(1.16545 0.306593 0)
(1.16292 0.282284 0)
(1.15965 0.257136 0)
(1.15576 0.231544 0)
(1.15133 0.20592 0)
(1.14647 0.180735 0)
(1.14124 0.156621 0)
(1.13551 0.134532 0)
(1.12928 0.116121 0)
(1.12619 0.104509 0)
(1.13335 0.414324 0)
(1.14 0.418309 0)
(1.14599 0.418806 0)
(1.15122 0.415773 0)
(1.1556 0.409258 0)
(1.15906 0.399398 0)
(1.16158 0.386411 0)
(1.16314 0.370581 0)
(1.16375 0.352247 0)
(1.16346 0.331783 0)
(1.16232 0.309583 0)
(1.16038 0.286046 0)
(1.15774 0.26157 0)
(1.15445 0.236553 0)
(1.15061 0.211413 0)
(1.14627 0.186635 0)
(1.14152 0.162864 0)
(1.13621 0.141072 0)
(1.13052 0.122941 0)
(1.12778 0.11157 0)
)
;

boundaryField
{
    zeroGradPlanes
    {
        type            zeroGradient;
    }
    inlet
    {
        type            fixedValue;
        value           uniform (1 0 0);
    }
    plate
    {
        type            noSlip;
    }
    frontAndBack
    {
        type            empty;
    }
}


// ************************************************************************* //
