/*--------------------------------*- C++ -*----------------------------------*\
| =========                 |                                                 |
| \\      /  F ield         | OpenFOAM: The Open Source CFD Toolbox           |
|  \\    /   O peration     | Version:  v1906                                 |
|   \\  /    A nd           | Web:      www.OpenFOAM.com                      |
|    \\/     M anipulation  |                                                 |
\*---------------------------------------------------------------------------*/
FoamFile
{
    version     2.0;
    format      ascii;
    class       volScalarField;
    location    "0.2";
    object      p;
}
// * * * * * * * * * * * * * * * * * * * * * * * * * * * * * * * * * * * * * //

dimensions      [0 2 -2 0 0 0 0];


internalField   nonuniform List<scalar> 
800
(
1.02193e-06
0.00935749
0.0222395
0.0351218
0.0489154
0.0635458
0.0793093
0.0965628
0.115814
0.137777
0.163452
0.194252
0.232161
0.280117
0.34278
0.424678
0.527729
0.696801
1.07741
1.25896
-0.00632897
0.00136666
0.0133334
0.0254503
0.0384756
0.0522161
0.066896
0.082778
0.100238
0.119779
0.142063
0.167926
0.19835
0.234383
0.277192
0.325755
0.369539
0.403006
0.450039
0.279194
-0.0180857
-0.012945
-0.00251934
0.00829943
0.0199682
0.0321536
0.0449385
0.0584212
0.0727397
0.0880315
0.104372
0.121655
0.139335
0.155968
0.168623
0.170966
0.14886
0.0848846
-0.0338135
-0.280743
-0.0316555
-0.0285211
-0.0195789
-0.0100964
0.000113868
0.010607
0.0213091
0.0321368
0.0429664
0.0535465
0.0633715
0.0714834
0.0761573
0.0744605
0.0618073
0.0312854
-0.0269744
-0.122873
-0.265124
-0.472775
-0.0469749
-0.0452573
-0.0377118
-0.0295906
-0.0209343
-0.012277
-0.00385325
0.00406536
0.0110933
0.0166175
0.0196494
0.0186355
0.0112352
-0.00587131
-0.0370069
-0.0873127
-0.162023
-0.264513
-0.395971
-0.556388
-0.064569
-0.0638617
-0.0576935
-0.051006
-0.0440477
-0.037424
-0.0315249
-0.0268034
-0.0238796
-0.0236542
-0.0274331
-0.0370418
-0.0548892
-0.0839003
-0.127229
-0.18774
-0.267168
-0.365009
-0.478196
-0.601046
-0.0846882
-0.0846575
-0.0798493
-0.074667
-0.0695426
-0.0651325
-0.0619615
-0.0606344
-0.0619436
-0.0669582
-0.0770909
-0.0941127
-0.120068
-0.157046
-0.206778
-0.270134
-0.346578
-0.433759
-0.527597
-0.622695
-0.107456
-0.107808
-0.104321
-0.100697
-0.0975099
-0.0954426
-0.095117
-0.0972371
-0.102679
-0.112536
-0.128124
-0.150903
-0.182311
-0.223488
-0.274932
-0.33618
-0.405608
-0.480464
-0.5572
-0.632027
-0.132979
-0.133473
-0.13125
-0.129217
-0.12803
-0.128368
-0.1309
-0.136359
-0.145604
-0.15962
-0.179468
-0.206161
-0.240479
-0.282747
-0.33262
-0.388967
-0.449903
-0.512993
-0.575603
-0.635324
-0.161343
-0.161802
-0.160767
-0.160332
-0.161156
-0.163883
-0.169163
-0.177687
-0.190205
-0.207491
-0.230268
-0.259078
-0.294139
-0.3352
-0.381469
-0.43163
-0.483968
-0.536597
-0.58772
-0.635873
-0.192593
-0.192897
-0.192957
-0.194094
-0.19688
-0.201885
-0.209683
-0.22085
-0.235957
-0.255517
-0.279904
-0.309254
-0.343378
-0.381707
-0.423302
-0.466937
-0.511239
-0.55486
-0.596634
-0.635698
-0.226717
-0.226796
-0.227842
-0.230485
-0.235121
-0.242205
-0.252178
-0.265454
-0.282388
-0.303225
-0.328036
-0.356662
-0.388675
-0.423389
-0.459911
-0.497228
-0.534326
-0.570293
-0.6044
-0.636152
-0.263638
-0.263457
-0.26537
-0.269414
-0.275733
-0.284621
-0.296352
-0.311147
-0.329142
-0.350348
-0.37461
-0.40159
-0.430766
-0.461468
-0.492942
-0.52442
-0.555193
-0.584674
-0.612425
-0.638177
-0.303189
-0.30274
-0.3054
-0.310718
-0.318515
-0.328891
-0.341932
-0.357662
-0.376022
-0.396844
-0.419832
-0.444569
-0.470538
-0.497163
-0.523859
-0.550079
-0.575359
-0.599337
-0.621766
-0.642514
-0.345096
-0.344393
-0.347704
-0.354171
-0.363241
-0.374792
-0.38872
-0.40487
-0.423026
-0.442903
-0.464139
-0.486313
-0.50897
-0.531655
-0.553945
-0.57548
-0.595976
-0.615232
-0.633127
-0.649618
-0.388923
-0.387992
-0.391915
-0.399468
-0.409673
-0.422165
-0.436658
-0.452844
-0.470398
-0.488973
-0.508204
-0.527719
-0.547158
-0.566193
-0.584547
-0.601999
-0.618394
-0.633635
-0.647681
-0.660539
-0.434005
-0.432866
-0.437438
-0.446118
-0.457452
-0.470812
-0.485747
-0.501821
-0.518629
-0.535793
-0.552965
-0.569838
-0.586152
-0.601703
-0.616347
-0.629993
-0.642599
-0.654162
-0.664708
-0.674286
-0.47952
-0.478394
-0.48386
-0.493849
-0.506395
-0.520626
-0.535975
-0.551947
-0.568116
-0.584125
-0.599678
-0.614536
-0.628517
-0.641494
-0.65339
-0.664176
-0.673864
-0.682494
-0.690132
-0.69686
-0.524497
-0.524836
-0.532539
-0.544809
-0.559198
-0.574619
-0.590403
-0.606003
-0.620993
-0.635073
-0.648046
-0.659811
-0.670339
-0.679662
-0.68785
-0.694998
-0.701214
-0.706607
-0.711279
-0.715323
-0.562795
-0.566787
-0.578819
-0.595375
-0.613843
-0.633066
-0.652328
-0.671005
-0.688578
-0.704654
-0.718969
-0.731377
-0.741836
-0.750394
-0.757163
-0.762304
-0.766001
-0.768453
-0.769865
-0.770446
-1.18906
-2.2957
-2.32399
-2.11741
-1.91987
-1.7581
-1.63
-1.52835
-1.44572
-1.37682
-1.31817
-1.26745
-1.22304
-1.18379
-1.14894
-1.118
-1.0909
-1.06781
-1.05079
-1.03917
-0.805512
-1.4753
-1.69411
-1.72535
-1.68647
-1.61777
-1.54225
-1.47068
-1.40608
-1.34859
-1.29754
-1.25209
-1.21149
-1.1751
-1.14247
-1.11333
-1.08777
-1.06599
-1.05001
-1.0389
-0.740629
-1.11873
-1.34297
-1.45261
-1.4897
-1.48139
-1.4489
-1.40617
-1.36063
-1.31589
-1.27356
-1.23425
-1.19809
-1.16501
-1.13493
-1.10784
-1.08398
-1.06362
-1.0488
-1.03836
-0.735291
-0.975701
-1.15702
-1.27313
-1.33653
-1.36057
-1.35796
-1.33914
-1.31148
-1.2797
-1.24671
-1.21415
-1.18295
-1.15358
-1.12635
-1.10151
-1.07949
-1.06064
-1.04704
-1.03746
-0.728445
-0.890049
-1.03007
-1.13681
-1.20946
-1.25181
-1.26987
-1.27021
-1.25857
-1.23948
-1.2162
-1.19099
-1.16532
-1.14018
-1.11621
-1.09394
-1.07398
-1.05681
-1.04458
-1.03611
-0.72105
-0.834604
-0.94191
-1.03398
-1.10594
-1.15661
-1.18757
-1.20204
-1.20374
-1.1962
-1.18243
-1.16479
-1.14508
-1.12457
-1.10425
-1.08488
-1.06724
-1.05194
-1.04124
-1.03411
-0.711466
-0.795804
-0.879414
-0.95666
-1.02286
-1.07523
-1.11297
-1.13691
-1.14888
-1.15118
-1.14615
-1.13592
-1.12229
-1.10671
-1.09033
-1.07413
-1.05904
-1.04581
-1.03682
-1.03121
-0.70047
-0.765735
-0.832245
-0.896677
-0.955533
-1.00599
-1.04631
-1.07592
-1.09525
-1.10545
-1.10806
-1.10474
-1.09708
-1.08651
-1.07427
-1.06146
-1.04912
-1.03814
-1.03101
-1.02705
-0.689457
-0.74129
-0.795071
-0.848868
-0.900295
-0.947027
-0.987184
-1.01956
-1.0437
-1.05984
-1.06877
-1.07158
-1.06953
-1.06389
-1.05586
-1.04657
-1.03713
-1.02853
-1.02342
-1.02112
-0.67937
-0.721209
-0.765182
-0.810175
-0.854624
-0.8968
-0.935047
-0.968007
-0.99478
-1.015
-1.02882
-1.03679
-1.03977
-1.03877
-1.03486
-1.02911
-1.02265
-1.0165
-1.0135
-1.01275
-0.670954
-0.705016
-0.741167
-0.778773
-0.816839
-0.854151
-0.889404
-0.921347
-0.948945
-0.971504
-0.988729
-1.00073
-1.00794
-1.01108
-1.011
-1.00867
-1.00513
-1.00144
-1.00055
-1.00104
-0.664812
-0.692608
-0.722329
-0.753629
-0.785892
-0.818303
-0.8499
-0.879657
-0.906598
-0.929912
-0.949054
-0.963798
-0.974247
-0.980787
-0.984037
-0.984792
-0.983968
-0.982606
-0.983681
-0.984915
-0.661423
-0.684035
-0.708347
-0.734178
-0.761161
-0.78877
-0.816331
-0.843065
-0.86815
-0.890809
-0.910406
-0.926521
-0.939002
-0.947968
-0.953791
-0.957061
-0.958525
-0.959149
-0.961849
-0.963101
-0.66123
-0.679464
-0.699133
-0.720155
-0.742316
-0.765285
-0.788613
-0.811739
-0.834023
-0.854804
-0.873471
-0.889534
-0.902693
-0.912871
-0.920231
-0.925156
-0.928201
-0.93022
-0.933932
-0.934242
-0.664469
-0.678946
-0.694584
-0.711344
-0.729103
-0.74765
-0.76669
-0.785832
-0.804607
-0.822495
-0.838975
-0.853583
-0.865971
-0.875955
-0.883549
-0.888964
-0.892565
-0.895078
-0.898873
-0.897052
-0.672055
-0.683225
-0.695252
-0.708123
-0.721759
-0.736028
-0.750731
-0.765601
-0.780303
-0.794449
-0.80763
-0.819456
-0.829604
-0.837868
-0.844186
-0.848656
-0.851492
-0.853291
-0.855944
-0.850645
-0.682826
-0.691114
-0.700007
-0.709462
-0.719405
-0.729725
-0.740265
-0.75082
-0.761141
-0.770944
-0.77993
-0.787812
-0.794351
-0.799386
-0.802865
-0.804837
-0.80542
-0.805105
-0.805184
-0.795006
-0.702658
-0.708038
-0.713618
-0.719392
-0.725298
-0.731248
-0.737128
-0.742795
-0.748073
-0.752763
-0.756652
-0.759537
-0.761252
-0.761691
-0.760828
-0.7587
-0.755372
-0.751264
-0.747018
-0.730393
-0.718802
-0.722164
-0.725614
-0.729002
-0.732208
-0.735093
-0.737488
-0.739197
-0.740011
-0.739723
-0.738143
-0.735129
-0.730608
-0.7246
-0.717216
-0.708627
-0.699015
-0.688854
-0.678054
-0.653427
-0.770276
-0.769167
-0.767273
-0.76467
-0.761241
-0.756835
-0.751323
-0.744585
-0.736517
-0.727045
-0.71614
-0.703842
-0.690283
-0.675704
-0.660443
-0.644892
-0.629443
-0.614406
-0.597699
-0.566333
)
;

boundaryField
{
    zeroGradPlanes
    {
        type            zeroGradient;
    }
    inlet
    {
        type            zeroGradient;
    }
    plate
    {
        type            zeroGradient;
    }
    frontAndBack
    {
        type            empty;
    }
}


// ************************************************************************* //
