/*--------------------------------*- C++ -*----------------------------------*\
| =========                 |                                                 |
| \\      /  F ield         | OpenFOAM: The Open Source CFD Toolbox           |
|  \\    /   O peration     | Version:  v1906                                 |
|   \\  /    A nd           | Web:      www.OpenFOAM.com                      |
|    \\/     M anipulation  |                                                 |
\*---------------------------------------------------------------------------*/
FoamFile
{
    version     2.0;
    format      ascii;
    class       surfaceScalarField;
    location    "0.2";
    object      phi;
}
// * * * * * * * * * * * * * * * * * * * * * * * * * * * * * * * * * * * * * //

dimensions      [0 3 -1 0 0 0 0];
oriented        oriented;


internalField   nonuniform List<scalar> 
1540
(
1.97821e-05
2.4834e-06
1.96317e-05
7.68032e-06
1.94779e-05
1.21311e-05
1.93263e-05
1.584e-05
1.91783e-05
1.89146e-05
1.90336e-05
2.14727e-05
1.88914e-05
2.36173e-05
1.87504e-05
2.54276e-05
1.86091e-05
2.69552e-05
1.84653e-05
2.82232e-05
1.83161e-05
2.92263e-05
1.81573e-05
2.99337e-05
1.79826e-05
3.02915e-05
1.77824e-05
3.02279e-05
1.75409e-05
2.96548e-05
1.72347e-05
2.84675e-05
1.6819e-05
2.65525e-05
1.61584e-05
2.38002e-05
1.49417e-05
1.99892e-05
1.43933e-05
1.30542e-05
2.1535e-05
2.60817e-06
2.1373e-05
7.84236e-06
2.12066e-05
1.22975e-05
2.10436e-05
1.60031e-05
2.08849e-05
1.90732e-05
2.07307e-05
2.16269e-05
2.05802e-05
2.37677e-05
2.04329e-05
2.5575e-05
2.02876e-05
2.71005e-05
2.01434e-05
2.83673e-05
1.99992e-05
2.93706e-05
1.98535e-05
3.00793e-05
1.97051e-05
3.044e-05
1.95526e-05
3.03804e-05
1.93945e-05
2.98129e-05
1.92275e-05
2.86345e-05
1.90499e-05
2.67301e-05
1.88623e-05
2.39877e-05
1.8596e-05
2.02556e-05
1.52556e-05
1.77337e-05
2.34471e-05
2.73562e-06
2.32751e-05
8.0143e-06
2.3098e-05
1.24746e-05
2.29252e-05
1.61759e-05
2.27586e-05
1.92398e-05
2.25989e-05
2.17867e-05
2.24462e-05
2.39205e-05
2.23008e-05
2.57203e-05
2.21638e-05
2.72375e-05
2.2037e-05
2.84941e-05
2.19235e-05
2.94841e-05
2.18285e-05
3.01743e-05
2.17602e-05
3.05083e-05
2.17305e-05
3.041e-05
2.17554e-05
2.9788e-05
2.18499e-05
2.854e-05
2.20153e-05
2.65647e-05
2.22105e-05
2.37925e-05
2.22634e-05
2.02026e-05
1.58753e-05
2.16437e-05
2.55322e-05
2.86189e-06
2.53535e-05
8.19294e-06
2.51684e-05
1.26598e-05
2.49892e-05
1.6355e-05
2.48192e-05
1.94097e-05
2.46601e-05
2.19458e-05
2.45134e-05
2.40672e-05
2.43817e-05
2.5852e-05
2.42692e-05
2.73499e-05
2.41823e-05
2.85811e-05
2.41303e-05
2.95361e-05
2.41266e-05
3.0178e-05
2.41888e-05
3.04461e-05
2.4338e-05
3.02608e-05
2.45938e-05
2.95323e-05
2.4961e-05
2.81728e-05
2.54063e-05
2.61194e-05
2.58278e-05
2.3371e-05
2.60122e-05
2.00182e-05
1.62825e-05
2.5605e-05
2.78053e-05
2.98319e-06
2.76246e-05
8.37368e-06
2.7436e-05
1.28483e-05
2.72557e-05
1.65354e-05
2.70889e-05
1.95765e-05
2.69389e-05
2.20958e-05
2.68096e-05
2.41964e-05
2.67068e-05
2.59548e-05
2.66389e-05
2.74179e-05
2.66178e-05
2.86022e-05
2.66597e-05
2.94943e-05
2.67845e-05
3.00531e-05
2.70151e-05
3.02155e-05
2.73716e-05
2.99043e-05
2.78615e-05
2.90424e-05
2.84628e-05
2.75714e-05
2.91041e-05
2.54781e-05
2.96521e-05
2.2823e-05
2.99145e-05
1.97558e-05
1.65156e-05
2.96814e-05
3.02827e-05
3.09573e-06
3.0106e-05
8.55044e-06
2.99209e-05
1.30335e-05
2.9747e-05
1.67093e-05
2.95924e-05
1.97311e-05
2.9463e-05
2.22252e-05
2.93656e-05
2.42938e-05
2.931e-05
2.60104e-05
2.93094e-05
2.74185e-05
2.93812e-05
2.85304e-05
2.95466e-05
2.93288e-05
2.98288e-05
2.97709e-05
3.02483e-05
2.9796e-05
3.08146e-05
2.93381e-05
3.1514e-05
2.8343e-05
3.22962e-05
2.67892e-05
3.30652e-05
2.47091e-05
3.3686e-05
2.22022e-05
3.40095e-05
1.94323e-05
1.66045e-05
3.39206e-05
3.29822e-05
3.19573e-06
3.28169e-05
8.7157e-06
3.26443e-05
1.32061e-05
3.24871e-05
1.68664e-05
3.23568e-05
1.98614e-05
3.22623e-05
2.23198e-05
3.2214e-05
2.4342e-05
3.2226e-05
2.59984e-05
3.2316e-05
2.73285e-05
3.25055e-05
2.83409e-05
3.28177e-05
2.90167e-05
3.32732e-05
2.93154e-05
3.38837e-05
2.91855e-05
3.46418e-05
2.858e-05
3.55117e-05
2.74731e-05
3.64225e-05
2.58785e-05
3.72715e-05
2.38601e-05
3.79412e-05
2.15326e-05
3.8327e-05
1.90465e-05
1.6562e-05
3.83695e-05
3.59227e-05
3.27959e-06
3.57779e-05
8.86053e-06
3.56292e-05
1.33548e-05
3.55018e-05
1.69938e-05
3.54106e-05
1.99526e-05
3.5368e-05
2.23625e-05
3.53881e-05
2.43219e-05
3.54887e-05
2.58978e-05
3.5691e-05
2.71262e-05
3.60176e-05
2.80142e-05
3.64897e-05
2.85447e-05
3.71204e-05
2.86846e-05
3.7908e-05
2.8398e-05
3.88273e-05
2.76606e-05
3.98255e-05
2.64749e-05
4.08228e-05
2.48812e-05
4.17235e-05
2.29594e-05
4.24345e-05
2.08216e-05
4.28867e-05
1.85942e-05
1.63973e-05
4.30514e-05
3.91252e-05
3.34385e-06
3.9011e-05
8.97474e-06
3.88999e-05
1.3466e-05
3.88182e-05
1.70755e-05
3.87835e-05
1.99872e-05
3.88116e-05
2.23344e-05
3.892e-05
2.42135e-05
3.9129e-05
2.56888e-05
3.94607e-05
2.67945e-05
3.99361e-05
2.75389e-05
4.057e-05
2.79108e-05
4.13649e-05
2.78897e-05
4.23047e-05
2.74582e-05
4.33501e-05
2.66152e-05
4.44386e-05
2.53864e-05
4.5492e-05
2.38277e-05
4.64286e-05
2.20228e-05
4.71789e-05
2.00713e-05
4.76988e-05
1.80743e-05
1.61205e-05
4.79756e-05
4.26124e-05
3.3852e-06
4.25399e-05
9.04725e-06
4.24819e-05
1.3524e-05
4.24638e-05
1.70936e-05
4.2505e-05
1.9946e-05
4.26236e-05
2.22158e-05
4.28392e-05
2.39979e-05
4.31728e-05
2.53552e-05
4.36449e-05
2.63224e-05
4.42714e-05
2.69124e-05
4.50585e-05
2.71237e-05
4.5997e-05
2.69511e-05
4.70587e-05
2.63965e-05
4.81952e-05
2.54788e-05
4.93427e-05
2.42388e-05
5.04308e-05
2.27397e-05
5.13937e-05
2.10599e-05
5.21815e-05
1.92835e-05
5.27665e-05
1.74893e-05
1.57428e-05
5.31442e-05
4.64091e-05
3.40047e-06
4.63899e-05
9.0664e-06
4.64017e-05
1.35122e-05
4.64666e-05
1.70287e-05
4.66037e-05
1.98089e-05
4.68319e-05
2.19875e-05
4.7171e-05
2.36589e-05
4.76403e-05
2.48859e-05
4.82561e-05
2.57065e-05
4.90273e-05
2.61412e-05
4.99503e-05
2.62007e-05
5.10058e-05
2.58956e-05
5.21573e-05
2.52451e-05
5.33536e-05
2.42825e-05
5.45349e-05
2.30575e-05
5.56418e-05
2.16328e-05
5.66234e-05
2.00782e-05
5.74446e-05
1.84623e-05
5.80881e-05
1.68458e-05
1.52773e-05
5.85537e-05
5.05421e-05
3.38653e-06
5.05881e-05
9.02036e-06
5.06869e-05
1.34134e-05
5.08543e-05
1.68612e-05
5.11068e-05
1.95564e-05
5.14614e-05
2.16329e-05
5.19358e-05
2.31845e-05
5.25456e-05
2.42761e-05
5.33008e-05
2.49513e-05
5.42024e-05
2.52396e-05
5.52381e-05
2.5165e-05
5.63813e-05
2.47524e-05
5.7592e-05
2.40344e-05
5.88208e-05
2.30537e-05
6.00154e-05
2.18629e-05
6.11277e-05
2.05205e-05
6.21198e-05
1.90861e-05
6.29671e-05
1.7615e-05
6.36591e-05
1.61538e-05
1.47389e-05
6.41975e-05
5.5041e-05
3.3403e-06
5.51639e-05
8.89751e-06
5.53665e-05
1.32108e-05
5.5655e-05
1.65727e-05
5.60399e-05
1.91716e-05
5.6534e-05
2.11388e-05
5.71502e-05
2.25683e-05
5.78983e-05
2.3528e-05
5.87817e-05
2.40679e-05
5.97936e-05
2.42277e-05
6.09155e-05
2.40431e-05
6.21171e-05
2.35509e-05
6.33587e-05
2.27928e-05
6.45961e-05
2.18163e-05
6.5786e-05
2.0673e-05
6.6891e-05
1.94155e-05
6.78833e-05
1.80938e-05
6.87461e-05
1.67522e-05
6.94732e-05
1.54267e-05
1.41449e-05
7.00672e-05
5.99381e-05
3.25845e-06
6.01492e-05
8.68635e-06
6.04717e-05
1.28884e-05
6.08979e-05
1.61464e-05
6.1429e-05
1.86405e-05
6.20705e-05
2.04973e-05
6.28287e-05
2.18101e-05
6.37069e-05
2.26498e-05
6.47014e-05
2.30733e-05
6.57999e-05
2.31292e-05
6.69801e-05
2.28628e-05
6.82115e-05
2.23194e-05
6.94582e-05
2.15462e-05
7.06828e-05
2.05917e-05
7.1851e-05
1.95047e-05
7.29349e-05
1.83316e-05
7.39146e-05
1.71141e-05
7.4779e-05
1.58877e-05
7.55248e-05
1.46809e-05
1.35148e-05
7.61549e-05
6.5269e-05
3.13682e-06
6.55805e-05
8.37485e-06
6.60381e-05
1.24308e-05
6.66162e-05
1.55683e-05
6.73031e-05
1.79537e-05
6.80947e-05
1.97057e-05
6.89894e-05
2.09153e-05
6.99835e-05
2.16557e-05
7.1068e-05
2.19888e-05
7.22269e-05
2.19703e-05
7.34374e-05
2.16524e-05
7.46715e-05
2.10854e-05
7.58988e-05
2.03189e-05
7.70897e-05
1.94007e-05
7.82187e-05
1.83758e-05
7.92654e-05
1.72848e-05
8.02167e-05
1.61629e-05
8.10655e-05
1.50389e-05
8.18107e-05
1.39357e-05
1.28703e-05
8.24552e-05
7.10741e-05
2.96908e-06
7.15005e-05
7.94844e-06
7.21091e-05
1.18223e-05
7.28514e-05
1.48259e-05
7.36999e-05
1.71051e-05
7.46395e-05
1.87662e-05
7.566e-05
1.98948e-05
7.67518e-05
2.05639e-05
7.79021e-05
2.08385e-05
7.9094e-05
2.07784e-05
8.03067e-05
2.04397e-05
8.15168e-05
1.98752e-05
8.27008e-05
1.91349e-05
8.3837e-05
1.82646e-05
8.49072e-05
1.73056e-05
8.58982e-05
1.62938e-05
8.68017e-05
1.52594e-05
8.76141e-05
1.42266e-05
8.83356e-05
1.32142e-05
1.22362e-05
8.89697e-05
7.73995e-05
2.74391e-06
7.79616e-05
7.38635e-06
7.87399e-05
1.1044e-05
7.96583e-05
1.39075e-05
8.06719e-05
1.60916e-05
8.17538e-05
1.76843e-05
8.28863e-05
1.87623e-05
8.40549e-05
1.93953e-05
8.52453e-05
1.96482e-05
8.64417e-05
1.9582e-05
8.76275e-05
1.92539e-05
8.87854e-05
1.87173e-05
8.98995e-05
1.80208e-05
9.09558e-05
1.72083e-05
9.19436e-05
1.63178e-05
9.28555e-05
1.53819e-05
9.36878e-05
1.44271e-05
9.44395e-05
1.34748e-05
9.51126e-05
1.25412e-05
1.16382e-05
9.57106e-05
8.43041e-05
2.43628e-06
8.50328e-05
6.65762e-06
8.60026e-05
1.00741e-05
8.71076e-05
1.28026e-05
8.82864e-05
1.49127e-05
8.95024e-05
1.64683e-05
9.07316e-05
1.7533e-05
9.19571e-05
1.81698e-05
9.31646e-05
1.84406e-05
9.43416e-05
1.8405e-05
9.54765e-05
1.81191e-05
9.65587e-05
1.76351e-05
9.75794e-05
1.70001e-05
9.85319e-05
1.62558e-05
9.94118e-05
1.54379e-05
0.000100217
1.45765e-05
0.000100948
1.36961e-05
0.000101607
1.2816e-05
0.000102197
1.19511e-05
1.11124e-05
0.000102723
9.18696e-05
1.9883e-06
9.28056e-05
5.72162e-06
9.39869e-05
8.89281e-06
9.52838e-05
1.15057e-05
9.66231e-05
1.35734e-05
9.79604e-05
1.51311e-05
9.92672e-05
1.62262e-05
0.000100525
1.69121e-05
0.000101721
1.72442e-05
0.000102849
1.72777e-05
0.000103902
1.70658e-05
0.000104879
1.66582e-05
0.000105779
1.61002e-05
0.000106603
1.54319e-05
0.000107353
1.46879e-05
0.000108032
1.38971e-05
0.000108645
1.30834e-05
0.000109195
1.22655e-05
0.000109688
1.1458e-05
1.0672e-05
0.000110129
0.000100142
0.000101313
0.000102711
0.000104205
0.000105718
0.000107198
0.00010861
0.000109931
0.000111147
0.000112251
0.000113243
0.000114126
0.000114906
0.00011559
0.000116188
0.000116708
0.000117161
0.000117554
0.000117895
0.000118192
7.02725e-06
6.02692e-06
4.03583e-06
2.99142e-06
2.58471e-06
1.45112e-06
1.84843e-06
7.36279e-07
1.43941e-06
4.09022e-07
1.18408e-06
2.55333e-07
1.00676e-06
1.77317e-07
8.7417e-07
1.32589e-07
7.7038e-07
1.0379e-07
6.86711e-07
8.36691e-08
6.17901e-07
6.88094e-08
5.60572e-07
5.73292e-08
5.12524e-07
4.80483e-08
4.72382e-07
4.01414e-08
4.39418e-07
3.29644e-08
4.13466e-07
2.59521e-08
3.94817e-07
1.86484e-08
3.84115e-07
1.07023e-08
3.80509e-07
3.60651e-09
-9.83452e-10
1.45212e-05
9.23946e-06
1.11682e-05
6.34445e-06
8.49741e-06
4.12187e-06
6.58078e-06
2.65291e-06
5.24889e-06
1.74091e-06
4.31498e-06
1.18924e-06
3.63951e-06
8.52779e-07
3.13262e-06
6.39481e-07
2.73921e-06
4.97201e-07
2.4254e-06
3.97475e-07
2.16983e-06
3.24381e-07
1.95865e-06
2.68513e-07
1.78279e-06
2.23909e-07
1.63646e-06
1.86468e-07
1.51634e-06
1.53084e-07
1.42113e-06
1.21165e-07
1.35121e-06
8.85692e-08
1.30768e-06
5.42263e-08
1.2887e-06
2.25906e-08
3.62143e-09
1.98162e-05
1.1067e-05
1.71874e-05
8.9732e-06
1.44284e-05
6.88092e-06
1.19638e-05
5.11745e-06
9.94057e-06
3.76415e-06
8.34589e-06
2.78393e-06
7.10421e-06
2.09446e-06
6.13227e-06
1.61143e-06
5.36095e-06
1.26852e-06
4.73898e-06
1.01945e-06
4.22999e-06
8.33367e-07
3.80868e-06
6.89824e-07
3.45767e-06
5.74918e-07
3.16543e-06
4.78708e-07
2.92499e-06
3.93532e-07
2.73312e-06
3.13029e-07
2.5898e-06
2.31888e-07
2.4962e-06
1.47831e-07
2.4496e-06
6.91935e-08
2.14322e-08
2.4444e-05
1.2228e-05
2.25041e-05
1.09131e-05
2.00949e-05
9.29012e-06
1.75789e-05
7.63344e-06
1.52159e-05
6.12714e-06
1.31388e-05
4.8611e-06
1.1382e-05
3.85122e-06
9.92394e-06
3.06951e-06
8.7206e-06
2.47185e-06
7.7256e-06
2.01445e-06
6.8985e-06
1.66046e-06
6.20722e-06
1.38111e-06
5.62769e-06
1.15445e-06
5.14292e-06
9.63474e-07
4.74205e-06
7.94402e-07
4.41962e-06
6.35464e-07
4.17482e-06
4.7668e-07
4.00889e-06
3.13767e-07
3.91828e-06
1.59803e-07
6.20556e-08
2.89142e-05
1.29952e-05
2.7513e-05
1.23143e-05
2.55632e-05
1.12399e-05
2.32723e-05
9.92439e-06
2.08693e-05
8.5301e-06
1.85406e-05
7.18981e-06
1.64038e-05
5.98806e-06
1.45119e-05
4.96139e-06
1.28727e-05
4.11109e-06
1.14686e-05
3.4185e-06
1.02722e-05
2.85683e-06
9.25499e-06
2.39835e-06
8.39186e-06
2.01758e-06
7.66328e-06
1.69205e-06
7.05585e-06
1.40183e-06
6.56243e-06
1.12888e-06
6.18175e-06
8.57361e-07
5.91546e-06
5.80059e-07
5.75976e-06
3.155e-07
1.38394e-07
3.34291e-05
1.34867e-05
3.24428e-05
1.33007e-05
3.094e-05
1.27426e-05
2.89994e-05
1.18651e-05
2.6766e-05
1.07635e-05
2.44059e-05
9.54992e-06
2.20664e-05
8.3276e-06
1.98541e-05
7.17368e-06
1.78313e-05
6.13382e-06
1.60241e-05
5.22577e-06
1.44338e-05
4.44714e-06
1.30487e-05
3.78341e-06
1.18523e-05
3.21401e-06
1.08284e-05
2.71596e-06
9.96465e-06
2.26555e-06
9.25447e-06
1.83907e-06
8.69736e-06
1.41447e-06
8.29658e-06
9.80837e-07
8.04941e-06
5.62671e-07
2.67423e-07
3.80922e-05
1.3764e-05
3.74317e-05
1.39612e-05
3.63249e-05
1.38494e-05
3.47701e-05
1.34198e-05
3.28298e-05
1.27038e-05
3.06139e-05
1.17658e-05
2.8253e-05
1.06886e-05
2.5871e-05
9.55566e-06
2.35675e-05
8.4373e-06
2.14107e-05
7.38261e-06
1.94393e-05
6.41846e-06
1.76701e-05
5.55261e-06
1.61056e-05
4.77855e-06
1.47416e-05
4.08001e-06
1.35729e-05
3.43424e-06
1.25974e-05
2.81448e-06
1.18186e-05
2.19335e-06
1.12434e-05
1.55601e-06
1.08728e-05
9.33317e-07
4.70986e-07
4.29513e-05
1.38641e-05
4.2556e-05
1.43565e-05
4.17914e-05
1.4614e-05
4.0614e-05
1.45972e-05
3.90254e-05
1.42925e-05
3.70748e-05
1.37164e-05
3.48498e-05
1.29135e-05
3.24591e-05
1.19464e-05
3.0012e-05
1.08844e-05
2.76039e-05
9.7907e-06
2.53079e-05
8.71443e-06
2.31738e-05
7.68672e-06
2.12318e-05
6.72057e-06
1.94986e-05
5.81316e-06
1.79842e-05
4.94865e-06
1.66972e-05
4.10145e-06
1.56493e-05
3.24124e-06
1.48555e-05
2.34984e-06
1.4324e-05
1.46483e-06
7.76477e-07
4.80268e-05
1.3813e-05
4.78535e-05
1.45298e-05
4.7384e-05
1.50835e-05
4.65572e-05
1.5424e-05
4.53369e-05
1.55127e-05
4.3723e-05
1.53304e-05
4.17542e-05
1.48823e-05
3.95029e-05
1.41977e-05
3.70631e-05
1.33242e-05
3.45351e-05
1.23186e-05
3.20127e-05
1.12369e-05
2.95743e-05
1.01251e-05
2.72804e-05
9.01447e-06
2.51752e-05
7.91831e-06
2.32914e-05
6.83246e-06
2.16558e-05
5.7371e-06
2.02947e-05
4.60229e-06
1.92365e-05
3.40802e-06
1.85026e-05
2.19881e-06
1.21716e-06
5.33255e-05
1.36317e-05
5.33406e-05
1.45147e-05
5.31252e-05
1.52989e-05
5.26146e-05
1.59346e-05
5.17538e-05
1.63735e-05
5.05087e-05
1.65755e-05
4.88755e-05
1.65156e-05
4.68841e-05
1.61891e-05
4.45961e-05
1.56122e-05
4.20956e-05
1.48192e-05
3.94775e-05
1.3855e-05
3.6836e-05
1.27666e-05
3.42566e-05
1.15939e-05
3.18118e-05
1.03631e-05
2.95621e-05
9.08223e-06
2.7559e-05
7.74016e-06
2.5851e-05
6.31033e-06
2.44864e-05
4.77261e-06
2.35066e-05
3.17858e-06
1.83179e-06
5.88459e-05
1.33395e-05
5.90202e-05
1.43404e-05
5.9022e-05
1.5297e-05
5.87904e-05
1.61661e-05
5.82642e-05
1.68997e-05
5.73905e-05
1.74492e-05
5.61345e-05
1.77716e-05
5.44879e-05
1.78357e-05
5.24735e-05
1.76266e-05
5.01444e-05
1.71483e-05
4.75781e-05
1.64214e-05
4.48669e-05
1.54777e-05
4.21085e-05
1.43523e-05
3.93975e-05
1.30741e-05
3.68215e-05
1.16583e-05
3.44607e-05
1.01009e-05
3.23915e-05
8.37961e-06
3.06891e-05
6.47493e-06
2.9423e-05
4.44471e-06
2.66299e-06
6.45813e-05
1.29557e-05
6.48874e-05
1.40343e-05
6.50713e-05
1.51131e-05
6.50797e-05
1.61578e-05
6.4853e-05
1.71264e-05
6.43313e-05
1.79709e-05
6.34615e-05
1.86414e-05
6.22066e-05
1.90905e-05
6.05537e-05
1.92795e-05
5.85193e-05
1.91827e-05
5.615e-05
1.87906e-05
5.35193e-05
1.81084e-05
5.07201e-05
1.71515e-05
4.78561e-05
1.59381e-05
4.50348e-05
1.44796e-05
4.23633e-05
1.27724e-05
3.9948e-05
1.07949e-05
3.78965e-05
8.52644e-06
3.63126e-05
6.02858e-06
3.75406e-06
7.05225e-05
1.25004e-05
7.09333e-05
1.36235e-05
7.12645e-05
1.47818e-05
7.14718e-05
1.59505e-05
7.15022e-05
1.70959e-05
7.12968e-05
1.81764e-05
7.07951e-05
1.9143e-05
6.9943e-05
1.99427e-05
6.87001e-05
2.05223e-05
6.70489e-05
2.08339e-05
6.50005e-05
2.08391e-05
6.25971e-05
2.05118e-05
5.99107e-05
1.98379e-05
5.70376e-05
1.88112e-05
5.40917e-05
1.74255e-05
5.11981e-05
1.5666e-05
4.84898e-05
1.35032e-05
4.6107e-05
1.09092e-05
4.41915e-05
7.94405e-06
5.14349e-06
7.66603e-05
1.1995e-05
7.71477e-05
1.31361e-05
7.75906e-05
1.43389e-05
7.7954e-05
1.55871e-05
7.81935e-05
1.68564e-05
7.82562e-05
1.81137e-05
7.80828e-05
1.93164e-05
7.76121e-05
2.04134e-05
7.67875e-05
2.13469e-05
7.55656e-05
2.20558e-05
7.39244e-05
2.24802e-05
7.18709e-05
2.25653e-05
6.94449e-05
2.22639e-05
6.67197e-05
2.15364e-05
6.37986e-05
2.03466e-05
6.08102e-05
1.86544e-05
5.79033e-05
1.641e-05
5.52443e-05
1.35683e-05
5.301e-05
1.01784e-05
6.85762e-06
8.29878e-05
1.14623e-05
8.35226e-05
1.26013e-05
8.40404e-05
1.38211e-05
8.45149e-05
1.51127e-05
8.49109e-05
1.64604e-05
8.51843e-05
1.78403e-05
8.52821e-05
1.92187e-05
8.51444e-05
2.05512e-05
8.47088e-05
2.17825e-05
8.39167e-05
2.28479e-05
8.27218e-05
2.36752e-05
8.10987e-05
2.41883e-05
7.90519e-05
2.43107e-05
7.66211e-05
2.39673e-05
7.38837e-05
2.3084e-05
7.09542e-05
2.15839e-05
6.79803e-05
1.93839e-05
6.51401e-05
1.64085e-05
6.26337e-05
1.26848e-05
8.90185e-06
8.95041e-05
1.09279e-05
9.00546e-05
1.20508e-05
9.06083e-05
1.32674e-05
9.11463e-05
1.45747e-05
9.16424e-05
1.59642e-05
9.2062e-05
1.74207e-05
9.23611e-05
1.89195e-05
9.24869e-05
2.04254e-05
9.23793e-05
2.18901e-05
9.19753e-05
2.32519e-05
9.1215e-05
2.44355e-05
9.00501e-05
2.53531e-05
8.84538e-05
2.5907e-05
8.64298e-05
2.59913e-05
8.402e-05
2.54938e-05
8.13086e-05
2.42953e-05
7.84228e-05
2.22697e-05
7.55311e-05
1.93002e-05
7.28363e-05
1.53796e-05
1.12528e-05
9.62213e-05
1.04172e-05
9.67558e-05
1.15163e-05
9.73057e-05
1.27175e-05
9.78583e-05
1.40221e-05
9.83951e-05
1.54274e-05
9.88907e-05
1.69251e-05
9.93114e-05
1.84988e-05
9.96145e-05
2.01223e-05
9.97485e-05
2.17561e-05
9.96546e-05
2.33458e-05
9.92705e-05
2.48196e-05
9.85368e-05
2.60869e-05
9.74051e-05
2.70386e-05
9.58486e-05
2.75478e-05
9.38716e-05
2.74709e-05
9.15179e-05
2.6649e-05
8.88763e-05
2.49113e-05
8.60824e-05
2.20941e-05
8.33141e-05
1.81479e-05
1.38545e-05
0.000103174
9.96581e-06
0.000103652
1.10387e-05
0.000104151
1.22182e-05
0.000104664
1.35088e-05
0.00010518
1.4912e-05
0.00010568
1.64248e-05
0.000106141
1.80377e-05
0.000106532
1.9732e-05
0.00010681
2.14772e-05
0.000106929
2.32273e-05
0.000106831
2.49173e-05
0.000106458
2.64604e-05
0.000105751
2.77452e-05
0.000104664
2.86344e-05
0.000103171
2.89648e-05
0.000101271
2.85486e-05
9.90043e-05
2.7178e-05
9.64516e-05
2.46468e-05
9.37376e-05
2.08619e-05
1.66193e-05
0.000110509
9.58587e-06
0.00011091
1.06376e-05
0.000111329
1.1799e-05
0.000111762
1.30761e-05
0.000112201
1.44728e-05
0.000112637
1.59893e-05
0.000113054
1.76205e-05
0.000113433
1.93532e-05
0.000113746
2.11636e-05
0.00011396
2.30132e-05
0.000114032
2.48452e-05
0.000113913
2.65798e-05
0.000113548
2.81105e-05
0.000112881
2.93008e-05
0.000111864
2.9982e-05
0.000110458
2.99543e-05
0.000108645
2.89916e-05
0.000106431
2.68602e-05
0.000103873
2.34202e-05
1.94519e-05
0.000118442
0.00011871
0.000118998
0.000119306
0.000119632
0.000119972
0.000120318
0.00012066
0.000120982
0.000121261
0.000121464
0.000121551
0.00012147
0.000121163
0.000120561
0.000119594
0.000118185
0.000116256
0.000113729
)
;

boundaryField
{
    zeroGradPlanes
    {
        type            calculated;
        value           nonuniform List<scalar> 
80
(
-2.3649e-06
-7.5299e-06
-1.19773e-05
-1.56884e-05
-1.87666e-05
-2.1328e-05
-2.34751e-05
-2.52866e-05
-2.68139e-05
-2.80794e-05
-2.90771e-05
-2.97748e-05
-3.01169e-05
-3.00277e-05
-2.94133e-05
-2.81613e-05
-2.61368e-05
-2.31396e-05
-1.87725e-05
-1.25058e-05
3.81492e-07
1.2841e-06
2.43178e-06
3.87766e-06
5.68342e-06
7.92038e-06
1.06692e-05
1.40185e-05
1.80619e-05
2.2892e-05
2.85918e-05
3.52215e-05
4.28021e-05
5.12958e-05
6.05895e-05
7.04853e-05
8.07124e-05
9.09728e-05
0.000101041
0.000110512
1.34956e-06
4.55072e-06
7.495e-06
1.0011e-05
1.20603e-05
1.36513e-05
1.48145e-05
1.55913e-05
1.60281e-05
1.6173e-05
1.60736e-05
1.57754e-05
1.53207e-05
1.47478e-05
1.40902e-05
1.33765e-05
1.26308e-05
1.18724e-05
1.11165e-05
1.03753e-05
9.33618e-06
1.03694e-05
1.15106e-05
1.27681e-05
1.4147e-05
1.56498e-05
1.72741e-05
1.90108e-05
2.08416e-05
2.27349e-05
2.46421e-05
2.6493e-05
2.81909e-05
2.96082e-05
3.05836e-05
3.09218e-05
3.04003e-05
2.87891e-05
2.59473e-05
2.26684e-05
)
;
    }
    inlet
    {
        type            calculated;
        value           nonuniform List<scalar> 
20
(
-1.99006e-05
-2.16598e-05
-2.35745e-05
-2.56584e-05
-2.79266e-05
-3.03953e-05
-3.30822e-05
-3.60066e-05
-3.91895e-05
-4.26538e-05
-4.64243e-05
-5.05282e-05
-5.49948e-05
-5.98562e-05
-6.51474e-05
-7.09063e-05
-7.71743e-05
-8.39964e-05
-9.14216e-05
-9.95031e-05
)
;
    }
    plate
    {
        type            calculated;
        value           uniform 0;
    }
    frontAndBack
    {
        type            empty;
        value           nonuniform 0();
    }
}


// ************************************************************************* //
