/*--------------------------------*- C++ -*----------------------------------*\
| =========                 |                                                 |
| \\      /  F ield         | OpenFOAM: The Open Source CFD Toolbox           |
|  \\    /   O peration     | Version:  v1906                                 |
|   \\  /    A nd           | Web:      www.OpenFOAM.com                      |
|    \\/     M anipulation  |                                                 |
\*---------------------------------------------------------------------------*/
FoamFile
{
    version     2.0;
    format      ascii;
    class       volVectorField;
    location    "0.2";
    object      U;
}
// * * * * * * * * * * * * * * * * * * * * * * * * * * * * * * * * * * * * * //

dimensions      [0 1 -1 0 0 0 0];


internalField   nonuniform List<vector> 
800
(
(0.99785 0.0243001 0)
(0.990623 0.0830852 0)
(0.982746 0.143391 0)
(0.975068 0.204142 0)
(0.967526 0.265577 0)
(0.960174 0.328348 0)
(0.952971 0.393226 0)
(0.945866 0.460917 0)
(0.938789 0.531891 0)
(0.931648 0.606195 0)
(0.924319 0.683236 0)
(0.916629 0.761556 0)
(0.908323 0.838591 0)
(0.899019 0.910401 0)
(0.888224 0.971318 0)
(0.874922 1.01342 0)
(0.855893 1.02593 0)
(0.82909 0.993706 0)
(0.81028 0.889693 0)
(0.784245 0.659673 0)
(0.997943 0.0254199 0)
(0.990856 0.0846493 0)
(0.983035 0.145137 0)
(0.975428 0.20601 0)
(0.967983 0.267562 0)
(0.960761 0.330459 0)
(0.953731 0.395483 0)
(0.946861 0.463349 0)
(0.940111 0.534538 0)
(0.933437 0.609114 0)
(0.926788 0.68651 0)
(0.920108 0.765307 0)
(0.913332 0.843003 0)
(0.906394 0.915761 0)
(0.899308 0.978097 0)
(0.892081 1.02242 0)
(0.883854 1.03867 0)
(0.874875 1.01423 0)
(0.873662 0.929555 0)
(0.865912 0.74704 0)
(0.998122 0.0268505 0)
(0.991332 0.0867047 0)
(0.983655 0.147437 0)
(0.976219 0.208462 0)
(0.969 0.270153 0)
(0.962072 0.333192 0)
(0.955435 0.398371 0)
(0.949097 0.466406 0)
(0.943087 0.537783 0)
(0.937458 0.612562 0)
(0.932311 0.69017 0)
(0.927815 0.769171 0)
(0.924245 0.847027 0)
(0.922017 0.919834 0)
(0.921775 0.982016 0)
(0.924304 1.02592 0)
(0.929867 1.04158 0)
(0.93819 1.01732 0)
(0.948388 0.939439 0)
(0.944257 0.791392 0)
(0.998354 0.028176 0)
(0.99201 0.0886944 0)
(0.984611 0.149674 0)
(0.977481 0.210829 0)
(0.970645 0.272621 0)
(0.96421 0.335746 0)
(0.958221 0.400993 0)
(0.952755 0.469066 0)
(0.947936 0.540422 0)
(0.943961 0.615074 0)
(0.941129 0.69237 0)
(0.939874 0.77075 0)
(0.940801 0.847487 0)
(0.944681 0.918413 0)
(0.952389 0.977684 0)
(0.964585 1.01762 0)
(0.980913 1.02898 0)
(0.999232 1.00243 0)
(1.01432 0.930768 0)
(1.0135 0.8125 0)
(0.99861 0.0294169 0)
(0.992851 0.0906582 0)
(0.985901 0.151897 0)
(0.979243 0.213158 0)
(0.972982 0.274999 0)
(0.967269 0.338128 0)
(0.962215 0.403318 0)
(0.957983 0.471232 0)
(0.954819 0.542259 0)
(0.953078 0.616311 0)
(0.953257 0.692582 0)
(0.956007 0.7693 0)
(0.962118 0.843474 0)
(0.972413 0.910692 0)
(0.987513 0.965075 0)
(1.00734 0.999528 0)
(1.03041 1.00663 0)
(1.05322 0.980474 0)
(1.06988 0.918984 0)
(1.07208 0.826525 0)
(0.998871 0.0305914 0)
(0.993818 0.0926197 0)
(0.987511 0.154131 0)
(0.981526 0.215467 0)
(0.97606 0.277284 0)
(0.971325 0.3403 0)
(0.967511 0.405249 0)
(0.96488 0.472725 0)
(0.963801 0.543007 0)
(0.964777 0.615847 0)
(0.968446 0.690233 0)
(0.97556 0.764154 0)
(0.986884 0.834408 0)
(1.003 0.896549 0)
(1.02396 0.945094 0)
(1.04883 0.974133 0)
(1.07528 0.978475 0)
(1.09942 0.955231 0)
(1.11631 0.905291 0)
(1.121 0.834145 0)
(0.999124 0.0316645 0)
(0.994876 0.0945092 0)
(0.98942 0.156287 0)
(0.984331 0.217644 0)
(0.979902 0.279332 0)
(0.976415 0.342067 0)
(0.974144 0.406524 0)
(0.973449 0.473192 0)
(0.974804 0.542199 0)
(0.978807 0.613104 0)
(0.986152 0.684679 0)
(0.99754 0.75472 0)
(1.01352 0.819972 0)
(1.03425 0.876248 0)
(1.05916 0.918849 0)
(1.08667 0.943326 0)
(1.11414 0.946527 0)
(1.13806 0.927645 0)
(1.15484 0.888821 0)
(1.16173 0.834969 0)
(0.999357 0.0325932 0)
(0.995994 0.0962263 0)
(0.991591 0.158232 0)
(0.987632 0.219526 0)
(0.984494 0.28094 0)
(0.982523 0.343173 0)
(0.982071 0.406818 0)
(0.983576 0.472229 0)
(0.987578 0.53936 0)
(0.994703 0.607574 0)
(1.00559 0.675462 0)
(1.02076 0.740749 0)
(1.04043 0.800333 0)
(1.06431 0.850553 0)
(1.09133 0.887708 0)
(1.11964 0.908772 0)
(1.14671 0.912154 0)
(1.16977 0.898222 0)
(1.18643 0.869356 0)
(1.19522 0.829447 0)
(0.999567 0.0333404 0)
(0.997141 0.0976634 0)
(0.993979 0.159811 0)
(0.99138 0.220922 0)
(0.989777 0.281874 0)
(0.989562 0.343336 0)
(0.991147 0.405795 0)
(0.995013 0.469456 0)
(1.00171 0.534096 0)
(1.01182 0.598912 0)
(1.02582 0.662406 0)
(1.04399 0.722377 0)
(1.06621 0.77607 0)
(1.09178 0.820516 0)
(1.11942 0.853031 0)
(1.14727 0.871771 0)
(1.17321 0.876176 0)
(1.19521 0.867134 0)
(1.21173 0.846793 0)
(1.22202 0.818076 0)
(0.999752 0.0338728 0)
(0.998292 0.0987038 0)
(0.996527 0.160851 0)
(0.995495 0.22161 0)
(0.995638 0.281874 0)
(0.997371 0.342256 0)
(1.00113 0.403126 0)
(1.00739 0.46454 0)
(1.01666 0.526123 0)
(1.02939 0.586971 0)
(1.04588 0.645604 0)
(1.06612 0.700038 0)
(1.08972 0.747992 0)
(1.11576 0.787232 0)
(1.14292 0.815969 0)
(1.16956 0.833225 0)
(1.19401 0.839034 0)
(1.21485 0.834419 0)
(1.23114 0.821145 0)
(1.2425 0.801361 0)
(0.999914 0.034158 0)
(0.999426 0.0992223 0)
(0.999172 0.161158 0)
(0.99987 0.221347 0)
(1.00192 0.280657 0)
(1.00572 0.339629 0)
(1.01167 0.398511 0)
(1.02022 0.457228 0)
(1.03177 0.5153 0)
(1.04661 0.571801 0)
(1.06484 0.625377 0)
(1.08623 0.674359 0)
(1.11018 0.716991 0)
(1.13574 0.751712 0)
(1.16167 0.777439 0)
(1.18665 0.79377 0)
(1.20943 0.80103 0)
(1.22907 0.800183 0)
(1.24498 0.792617 0)
(1.25697 0.779898 0)
(1.00006 0.0341646 0)
(1.00052 0.0990895 0)
(1.00185 0.160527 0)
(1.00438 0.219874 0)
(1.00842 0.277941 0)
(1.0143 0.335173 0)
(1.02237 0.391711 0)
(1.03298 0.447374 0)
(1.04639 0.501641 0)
(1.06274 0.55364 0)
(1.08194 0.602218 0)
(1.10361 0.646074 0)
(1.12709 0.683949 0)
(1.15147 0.714842 0)
(1.17572 0.73818 0)
(1.19879 0.753905 0)
(1.21983 0.762456 0)
(1.23818 0.764663 0)
(1.2535 0.761593 0)
(1.26571 0.75439 0)
(1.00019 0.0338619 0)
(1.00158 0.098177 0)
(1.00449 0.158754 0)
(1.00889 0.216944 0)
(1.01493 0.273464 0)
(1.02282 0.328658 0)
(1.03281 0.382569 0)
(1.04513 0.434957 0)
(1.05991 0.485307 0)
(1.07714 0.532867 0)
(1.0966 0.576726 0)
(1.11784 0.615942 0)
(1.14023 0.649688 0)
(1.16297 0.677387 0)
(1.18524 0.698808 0)
(1.20629 0.714083 0)
(1.2255 0.723665 0)
(1.24247 0.72824 0)
(1.25699 0.728621 0)
(1.26903 0.725648 0)
(1.0003 0.033218 0)
(1.00258 0.0963586 0)
(1.00704 0.155643 0)
(1.01329 0.212325 0)
(1.02124 0.267005 0)
(1.03096 0.31992 0)
(1.04259 0.371033 0)
(1.05621 0.420076 0)
(1.07184 0.466588 0)
(1.08935 0.509967 0)
(1.10846 0.549548 0)
(1.12872 0.584707 0)
(1.14957 0.614956 0)
(1.17037 0.640021 0)
(1.19051 0.659884 0)
(1.20945 0.674769 0)
(1.22679 0.6851 0)
(1.24227 0.691432 0)
(1.25577 0.694388 0)
(1.26728 0.694591 0)
(1.00042 0.0321961 0)
(1.00354 0.0935064 0)
(1.00951 0.151008 0)
(1.01751 0.205818 0)
(1.02722 0.2584 0)
(1.03853 0.308878 0)
(1.05145 0.357148 0)
(1.06593 0.402942 0)
(1.08189 0.44587 0)
(1.09916 0.485486 0)
(1.11742 0.521346 0)
(1.13628 0.553078 0)
(1.15529 0.580444 0)
(1.17397 0.603374 0)
(1.19188 0.621971 0)
(1.20867 0.636496 0)
(1.22408 0.647328 0)
(1.23794 0.654917 0)
(1.25021 0.659742 0)
(1.26089 0.662277 0)
(1.00054 0.0307481 0)
(1.00451 0.0894833 0)
(1.01193 0.144667 0)
(1.02158 0.197249 0)
(1.03284 0.247534 0)
(1.04546 0.295523 0)
(1.05928 0.341049 0)
(1.07419 0.383849 0)
(1.09003 0.423606 0)
(1.1066 0.460005 0)
(1.12362 0.492776 0)
(1.14079 0.521734 0)
(1.15776 0.546809 0)
(1.17421 0.568054 0)
(1.18984 0.585641 0)
(1.20444 0.599837 0)
(1.21785 0.610977 0)
(1.22998 0.61943 0)
(1.24082 0.625576 0)
(1.25039 0.629781 0)
(1.00069 0.0288077 0)
(1.00556 0.0841467 0)
(1.01443 0.136473 0)
(1.02562 0.18652 0)
(1.03823 0.234393 0)
(1.05185 0.279953 0)
(1.06623 0.322964 0)
(1.08117 0.36316 0)
(1.09649 0.400282 0)
(1.112 0.434111 0)
(1.1275 0.464497 0)
(1.14274 0.491378 0)
(1.15752 0.514783 0)
(1.17164 0.534833 0)
(1.18494 0.551726 0)
(1.19728 0.565718 0)
(1.20861 0.577103 0)
(1.2189 0.58619 0)
(1.22814 0.593288 0)
(1.23638 0.598691 0)
(1.00093 0.0262012 0)
(1.00691 0.0772262 0)
(1.01726 0.126225 0)
(1.02987 0.173569 0)
(1.0436 0.219084 0)
(1.05793 0.26245 0)
(1.07254 0.303339 0)
(1.0872 0.341454 0)
(1.10172 0.376555 0)
(1.11596 0.408477 0)
(1.12976 0.43714 0)
(1.14301 0.462551 0)
(1.15556 0.484796 0)
(1.16734 0.504031 0)
(1.17828 0.520465 0)
(1.18833 0.534342 0)
(1.1975 0.545926 0)
(1.20578 0.555484 0)
(1.21322 0.563279 0)
(1.21986 0.569555 0)
(1.00141 0.0221874 0)
(1.00888 0.0675209 0)
(1.02075 0.112654 0)
(1.03462 0.157206 0)
(1.0492 0.200591 0)
(1.06393 0.242263 0)
(1.07846 0.281768 0)
(1.09254 0.318739 0)
(1.10601 0.352901 0)
(1.11875 0.384076 0)
(1.13071 0.412178 0)
(1.14184 0.437215 0)
(1.15212 0.45927 0)
(1.16156 0.478492 0)
(1.17018 0.495077 0)
(1.17801 0.509252 0)
(1.18508 0.521257 0)
(1.19144 0.531339 0)
(1.19715 0.539733 0)
(1.20225 0.546664 0)
(1.00205 0.0155883 0)
(1.01117 0.0538132 0)
(1.02436 0.0945321 0)
(1.03924 0.135966 0)
(1.05454 0.176994 0)
(1.06969 0.216845 0)
(1.0843 0.254957 0)
(1.0981 0.290911 0)
(1.1109 0.324399 0)
(1.12259 0.355214 0)
(1.13316 0.383244 0)
(1.14259 0.408462 0)
(1.15095 0.430915 0)
(1.15831 0.45071 0)
(1.16475 0.468006 0)
(1.17036 0.482988 0)
(1.17525 0.495866 0)
(1.17949 0.506855 0)
(1.18317 0.516168 0)
(1.18637 0.52401 0)
(0.440737 0.247781 0)
(0.263055 0.0930316 0)
(0.157107 0.0334481 0)
(0.105412 0.0121823 0)
(0.0794859 0.00485986 0)
(0.0642192 0.00233571 0)
(0.0540099 0.00138873 0)
(0.0465755 0.000951949 0)
(0.0408397 0.000698273 0)
(0.0362547 0.000528103 0)
(0.0325053 0.00040577 0)
(0.0293916 0.000314341 0)
(0.0267824 0.000243801 0)
(0.024593 0.000187522 0)
(0.0227733 0.000140823 0)
(0.0213035 0.000100189 0)
(0.020185 6.33968e-05 0)
(0.0194619 2.86331e-05 0)
(0.0191066 3.21247e-06 0)
(0.0191611 -1.10955e-05 0)
(0.743344 0.457057 0)
(0.588825 0.248701 0)
(0.444592 0.126909 0)
(0.339007 0.0650011 0)
(0.266606 0.0349362 0)
(0.216392 0.020279 0)
(0.180614 0.0127763 0)
(0.15422 0.00860262 0)
(0.134023 0.00607107 0)
(0.118081 0.00442517 0)
(0.105197 0.00329805 0)
(0.094601 0.00249386 0)
(0.0857916 0.00189881 0)
(0.0784411 0.00144221 0)
(0.0723477 0.00107757 0)
(0.067413 0.000772855 0)
(0.0636129 0.000506994 0)
(0.0610367 0.000269149 0)
(0.059611 8.62102e-05 0)
(0.0594187 -8.58556e-06 0)
(0.886392 0.586985 0)
(0.787397 0.403225 0)
(0.667097 0.260591 0)
(0.553484 0.163886 0)
(0.458209 0.102908 0)
(0.382405 0.0658979 0)
(0.323363 0.0435865 0)
(0.27741 0.0298624 0)
(0.241217 0.0211232 0)
(0.212241 0.0153409 0)
(0.188672 0.0113713 0)
(0.169244 0.00855086 0)
(0.153081 0.0064797 0)
(0.139593 0.00490607 0)
(0.128401 0.00366447 0)
(0.1193 0.00264236 0)
(0.11222 0.00176453 0)
(0.107266 0.000996813 0)
(0.104327 0.000392991 0)
(0.103504 7.95578e-05 0)
(0.98137 0.66683 0)
(0.919358 0.52108 0)
(0.830869 0.385832 0)
(0.731633 0.275144 0)
(0.634809 0.192032 0)
(0.547787 0.133219 0)
(0.473325 0.0930198 0)
(0.411261 0.065882 0)
(0.360048 0.047485 0)
(0.317797 0.0348287 0)
(0.282776 0.0259394 0)
(0.253571 0.0195451 0)
(0.2291 0.0148229 0)
(0.208578 0.0112316 0)
(0.191474 0.00840602 0)
(0.177482 0.00609428 0)
(0.16648 0.00412573 0)
(0.158574 0.00242234 0)
(0.153628 0.00106576 0)
(0.151758 0.000332205 0)
(1.05354 0.718609 0)
(1.01453 0.604999 0)
(0.952779 0.487919 0)
(0.874531 0.379433 0)
(0.788493 0.287007 0)
(0.702481 0.213251 0)
(0.621941 0.157143 0)
(0.549756 0.115757 0)
(0.486793 0.0857138 0)
(0.432697 0.0639874 0)
(0.386553 0.0481909 0)
(0.3473 0.0365644 0)
(0.313954 0.0278546 0)
(0.28571 0.0211781 0)
(0.26198 0.0159101 0)
(0.242404 0.0116063 0)
(0.226827 0.00795862 0)
(0.215364 0.00481916 0)
(0.207876 0.00229428 0)
(0.204512 0.000854357 0)
(1.11108 0.752817 0)
(1.08705 0.66473 0)
(1.04551 0.567831 0)
(0.987597 0.469969 0)
(0.917399 0.378289 0)
(0.840426 0.297748 0)
(0.762078 0.230628 0)
(0.686605 0.176918 0)
(0.616728 0.135151 0)
(0.55378 0.103231 0)
(0.498098 0.0790208 0)
(0.449424 0.0606393 0)
(0.407234 0.0465649 0)
(0.370955 0.03562 0)
(0.340103 0.0269126 0)
(0.314359 0.0197767 0)
(0.293598 0.0137344 0)
(0.277975 0.00854151 0)
(0.267386 0.00432421 0)
(0.262055 0.00178545 0)
(1.15792 0.773695 0)
(1.14414 0.705937 0)
(1.1174 0.628002 0)
(1.07664 0.544234 0)
(1.02289 0.459829 0)
(0.958957 0.379689 0)
(0.8887 0.307505 0)
(0.816143 0.245329 0)
(0.744745 0.193659 0)
(0.677032 0.151851 0)
(0.614562 0.11861 0)
(0.558099 0.0924127 0)
(0.507864 0.0717769 0)
(0.463777 0.0553964 0)
(0.425662 0.0421842 0)
(0.393388 0.0312708 0)
(0.366955 0.0220004 0)
(0.346622 0.0140157 0)
(0.332378 0.00745921 0)
(0.324596 0.00330746 0)
(1.19593 0.783735 0)
(1.18943 0.732227 0)
(1.17351 0.670958 0)
(1.14645 0.601941 0)
(1.10761 0.528325 0)
(1.05776 0.453855 0)
(0.998903 0.382179 0)
(0.933929 0.316237 0)
(0.865989 0.257902 0)
(0.798001 0.207939 0)
(0.732322 0.166191 0)
(0.670632 0.131886 0)
(0.613991 0.103934 0)
(0.563001 0.0811572 0)
(0.517983 0.06243 0)
(0.47916 0.0467609 0)
(0.446784 0.0333489 0)
(0.421318 0.0217282 0)
(0.402916 0.0120614 0)
(0.392205 0.00565228 0)
(1.22607 0.78462 0)
(1.22483 0.746161 0)
(1.21689 0.699089 0)
(1.20047 0.644025 0)
(1.17425 0.582524 0)
(1.13775 0.516952 0)
(1.09148 0.450152 0)
(1.03693 0.384985 0)
(0.976332 0.323895 0)
(0.912268 0.268605 0)
(0.847278 0.22001 0)
(0.783588 0.178254 0)
(0.722961 0.142912 0)
(0.666704 0.1132 0)
(0.615755 0.0881685 0)
(0.570832 0.0668463 0)
(0.532577 0.0483701 0)
(0.501766 0.0322024 0)
(0.478814 0.0185456 0)
(0.464741 0.00910717 0)
(1.24896 0.77761 0)
(1.25152 0.749643 0)
(1.24943 0.714445 0)
(1.24112 0.671876 0)
(1.22513 0.622423 0)
(1.20037 0.567274 0)
(1.16635 0.50825 0)
(1.1234 0.44758 0)
(1.07264 0.387586 0)
(1.01586 0.330352 0)
(0.95523 0.277458 0)
(0.893027 0.229857 0)
(0.831392 0.187871 0)
(0.772179 0.151302 0)
(0.716928 0.119583 0)
(0.66692 0.0919406 0)
(0.623288 0.0675757 0)
(0.58724 0.045955 0)
(0.559532 0.0273613 0)
(0.54176 0.0140155 0)
(1.26507 0.763816 0)
(1.2703 0.744244 0)
(1.27242 0.718824 0)
(1.27016 0.687045 0)
(1.26217 0.648759 0)
(1.24717 0.604309 0)
(1.22417 0.554589 0)
(1.19268 0.50101 0)
(1.15287 0.445355 0)
(1.10558 0.389541 0)
(1.05227 0.335363 0)
(0.994838 0.284265 0)
(0.93538 0.237198 0)
(0.876 0.194584 0)
(0.818671 0.156366 0)
(0.765188 0.122133 0)
(0.717211 0.0912937 0)
(0.676444 0.0634258 0)
(0.644053 0.0389578 0)
(0.622405 0.0207689 0)
(1.27479 0.744312 0)
(1.28178 0.731391 0)
(1.28681 0.713892 0)
(1.28891 0.691167 0)
(1.28694 0.662741 0)
(1.27969 0.628425 0)
(1.266 0.58842 0)
(1.24493 0.543374 0)
(1.21598 0.494375 0)
(1.17916 0.44285 0)
(1.13513 0.390389 0)
(1.08512 0.338537 0)
(1.03082 0.288592 0)
(0.974217 0.241462 0)
(0.917442 0.197603 0)
(0.862626 0.157049 0)
(0.811879 0.119542 0)
(0.767393 0.0848832 0)
(0.730757 0.0537279 0)
(0.705299 0.029785 0)
(1.27854 0.720205 0)
(1.28653 0.712477 0)
(1.29342 0.701275 0)
(1.29848 0.685951 0)
(1.30083 0.665901 0)
(1.29941 0.640651 0)
(1.29313 0.609952 0)
(1.2809 0.573868 0)
(1.26183 0.532836 0)
(1.23537 0.487667 0)
(1.20145 0.439483 0)
(1.16057 0.389589 0)
(1.11379 0.339292 0)
(1.06268 0.289731 0)
(1.00919 0.241734 0)
(0.955529 0.195751 0)
(0.904058 0.151907 0)
(0.857347 0.110312 0)
(0.81733 0.0719282 0)
(0.788457 0.0414669 0)
(1.27675 0.692659 0)
(1.28513 0.688909 0)
(1.293 0.682611 0)
(1.29987 0.673181 0)
(1.30506 0.660005 0)
(1.30776 0.6425 0)
(1.307 0.620171 0)
(1.30176 0.592699 0)
(1.29102 0.560013 0)
(1.27392 0.52235 0)
(1.24988 0.480273 0)
(1.21877 0.434628 0)
(1.18097 0.386447 0)
(1.13745 0.336801 0)
(1.08972 0.28665 0)
(1.03974 0.236715 0)
(0.989877 0.187455 0)
(0.942842 0.139306 0)
(0.900749 0.0935845 0)
(0.869248 0.0561423 0)
(1.26991 0.66295 0)
(1.27817 0.662182 0)
(1.28632 0.659614 0)
(1.29404 0.65475 0)
(1.30084 0.647035 0)
(1.30612 0.635878 0)
(1.30913 0.620691 0)
(1.30898 0.600946 0)
(1.30471 0.57624 0)
(1.29537 0.546364 0)
(1.28013 0.511363 0)
(1.2584 0.471561 0)
(1.23001 0.427535 0)
(1.19528 0.380046 0)
(1.15514 0.329925 0)
(1.11107 0.277941 0)
(1.06513 0.224735 0)
(1.0199 0.171003 0)
(0.9774 0.118403 0)
(0.944475 0.0739876 0)
(1.25862 0.632344 0)
(1.26631 0.633764 0)
(1.27415 0.63397 0)
(1.28192 0.632557 0)
(1.28931 0.629052 0)
(1.29588 0.622914 0)
(1.30108 0.613554 0)
(1.30422 0.600364 0)
(1.30449 0.582762 0)
(1.30101 0.56025 0)
(1.29289 0.532476 0)
(1.27932 0.499288 0)
(1.25976 0.460772 0)
(1.23402 0.417241 0)
(1.20241 0.369187 0)
(1.16582 0.317197 0)
(1.12579 0.261896 0)
(1.08444 0.204094 0)
(1.04341 0.145704 0)
(1.01063 0.0949281 0)
(1.24356 0.602607 0)
(1.25036 0.605598 0)
(1.25743 0.607806 0)
(1.26462 0.608911 0)
(1.27174 0.608522 0)
(1.27851 0.606173 0)
(1.28455 0.601325 0)
(1.28936 0.593374 0)
(1.29232 0.581676 0)
(1.29271 0.565581 0)
(1.28973 0.544483 0)
(1.28257 0.517876 0)
(1.2705 0.485411 0)
(1.253 0.446933 0)
(1.22991 0.402496 0)
(1.20152 0.352339 0)
(1.16873 0.296876 0)
(1.13297 0.236858 0)
(1.09523 0.174319 0)
(1.06435 0.118445 0)
(1.22568 0.574461 0)
(1.23122 0.578606 0)
(1.23706 0.58229 0)
(1.24312 0.585259 0)
(1.24929 0.58719 0)
(1.25539 0.587687 0)
(1.26118 0.586268 0)
(1.26634 0.582368 0)
(1.27043 0.575344 0)
(1.27291 0.564487 0)
(1.27315 0.549058 0)
(1.27045 0.52833 0)
(1.26409 0.501643 0)
(1.25343 0.468462 0)
(1.238 0.428429 0)
(1.21762 0.381397 0)
(1.19258 0.327478 0)
(1.16347 0.267227 0)
(1.13044 0.202631 0)
(1.10316 0.143597 0)
(1.20674 0.552248 0)
(1.21102 0.557136 0)
(1.21552 0.561732 0)
(1.2202 0.565827 0)
(1.225 0.569152 0)
(1.22981 0.571371 0)
(1.23452 0.572065 0)
(1.23893 0.570733 0)
(1.24278 0.56678 0)
(1.24575 0.559525 0)
(1.24741 0.548212 0)
(1.24725 0.532039 0)
(1.2447 0.510198 0)
(1.23913 0.481928 0)
(1.22995 0.446579 0)
(1.21668 0.403681 0)
(1.19901 0.353025 0)
(1.17671 0.29487 0)
(1.14907 0.230917 0)
(1.12646 0.171451 0)
(1.1891 0.530469 0)
(1.1917 0.536266 0)
(1.19449 0.541916 0)
(1.1975 0.547243 0)
(1.20069 0.552017 0)
(1.20406 0.555951 0)
(1.20753 0.558682 0)
(1.21102 0.559767 0)
(1.21441 0.558672 0)
(1.21749 0.554764 0)
(1.21998 0.547311 0)
(1.22153 0.535496 0)
(1.22166 0.518437 0)
(1.21982 0.49523 0)
(1.21536 0.465008 0)
(1.20756 0.427025 0)
(1.19569 0.380768 0)
(1.1787 0.326208 0)
(1.15529 0.264902 0)
(1.13659 0.207244 0)
)
;

boundaryField
{
    zeroGradPlanes
    {
        type            zeroGradient;
    }
    inlet
    {
        type            fixedValue;
        value           uniform (1 0 0);
    }
    plate
    {
        type            noSlip;
    }
    frontAndBack
    {
        type            empty;
    }
}


// ************************************************************************* //
