/*--------------------------------*- C++ -*----------------------------------*\
| =========                 |                                                 |
| \\      /  F ield         | OpenFOAM: The Open Source CFD Toolbox           |
|  \\    /   O peration     | Version:  v1906                                 |
|   \\  /    A nd           | Web:      www.OpenFOAM.com                      |
|    \\/     M anipulation  |                                                 |
\*---------------------------------------------------------------------------*/
FoamFile
{
    version     2.0;
    format      ascii;
    class       volScalarField;
    location    "1000";
    object      alphat;
}
// * * * * * * * * * * * * * * * * * * * * * * * * * * * * * * * * * * * * * //

dimensions      [1 -1 -1 0 0 0 0];


internalField   nonuniform List<scalar> 
2000
(
0.000512608
0.000370241
0.000315646
0.000287674
0.000269118
0.000253741
0.000239747
0.000226291
0.000212907
0.00019928
0.000185442
0.00017068
0.000151619
0.000121276
9.27464e-05
5.05312e-05
6.51926e-05
8.08689e-05
9.31198e-05
0.000102034
0.000108219
0.000113447
0.000115957
0.000116159
0.000114659
0.000109972
0.000101064
8.47464e-05
7.63251e-05
8.38252e-05
0.000103845
0.000126074
0.000142862
0.000156013
0.000166387
0.000174409
0.000180739
0.000185747
0.000189722
0.000192859
0.000195324
0.000197389
0.000199444
0.000201336
0.000202957
0.000204412
0.000205764
0.000207273
0.000208896
0.000211631
0.0100597
0.00431721
0.00340537
0.00306193
0.00283234
0.00263905
0.00246556
0.00230581
0.00215541
0.00201107
0.00186539
0.0017046
0.00149291
0.00104368
0.000191917
8.87376e-05
0.000358602
0.000504633
0.000667811
0.000823732
0.000947319
0.00104008
0.0011041
0.00113073
0.00111508
0.00101822
0.000830824
0.000539394
0.000113536
0.000137864
0.000639739
0.000953306
0.00122562
0.00144078
0.00160767
0.00174231
0.00185187
0.0019408
0.00201308
0.00207169
0.00211874
0.00215609
0.00218278
0.00220153
0.00221586
0.00222743
0.00223823
0.00224846
0.00226351
0.00227261
0.036534
0.0136813
0.0093814
0.00776994
0.00687009
0.00622765
0.00571419
0.00526923
0.00486091
0.00446533
0.00405231
0.00357059
0.00290605
0.00178469
0.000237484
0.000116475
0.000760167
0.00109163
0.00140075
0.00167506
0.00189077
0.00204668
0.00211856
0.00211161
0.00199202
0.00173359
0.00132811
0.000816892
0.000125731
0.000170941
0.00124361
0.00191622
0.0024581
0.00290938
0.00328557
0.00359992
0.00386242
0.00408065
0.00426149
0.00441081
0.00453311
0.00463192
0.00470895
0.00476835
0.00481511
0.00485272
0.00488425
0.0049111
0.00493602
0.00494825
0.0599712
0.0265596
0.0173873
0.0136792
0.0116686
0.0103136
0.00929586
0.00844651
0.00768446
0.00695165
0.00618593
0.00529483
0.00411201
0.00235811
0.000271426
0.000135609
0.00105779
0.00160813
0.00204704
0.00241234
0.00269131
0.00287421
0.00291196
0.00284607
0.00261081
0.00219478
0.00160529
0.000885837
0.00012886
0.000193719
0.00165962
0.00270569
0.0035204
0.00420524
0.00478959
0.00528839
0.0057129
0.00607236
0.00637532
0.00662945
0.00684111
0.00701556
0.00715688
0.00727023
0.00736119
0.00743429
0.00749311
0.00753951
0.00757411
0.00758906
0.074111
0.0395254
0.0263652
0.0203354
0.0169611
0.014735
0.0130759
0.011729
0.0105387
0.00940381
0.00822558
0.00687458
0.00515435
0.00281882
0.00029954
0.000149938
0.00127635
0.00204606
0.00259655
0.00303294
0.00335714
0.00355458
0.00357018
0.00343933
0.0031023
0.00253964
0.00176398
0.000861397
0.00013088
0.000209879
0.00192202
0.00331313
0.00439263
0.00530444
0.00609163
0.00677311
0.00736111
0.00786582
0.00829682
0.00866299
0.00897204
0.00923065
0.00944458
0.00961977
0.00976215
0.0098767
0.00996721
0.0100355
0.0100815
0.0100994
0.0824598
0.0506702
0.0352736
0.0272476
0.0225001
0.0193227
0.0169645
0.0150505
0.0133785
0.0117942
0.0101626
0.00832487
0.00607652
0.00320488
0.000322364
0.000160954
0.00143755
0.00239774
0.00305831
0.00355943
0.00391855
0.00412796
0.0041307
0.00394878
0.00352976
0.00284425
0.00190651
0.000825314
0.000131265
0.000221741
0.00209631
0.00376145
0.00508797
0.00621674
0.00720263
0.00806367
0.0088143
0.00946521
0.0100267
0.0105085
0.0109194
0.0112672
0.0115588
0.0118007
0.0119991
0.0121591
0.0122844
0.0123768
0.0124358
0.0124573
0.0876832
0.0596083
0.0434376
0.0339857
0.028032
0.0239301
0.0208515
0.0183508
0.0161617
0.0140987
0.0119902
0.00965809
0.00689647
0.00353107
0.000341559
0.000169923
0.0015661
0.00267795
0.0034395
0.00400211
0.00440046
0.00462843
0.00463636
0.00442524
0.00394315
0.00316662
0.00209284
0.000834235
0.000137012
0.000230681
0.002206
0.00408049
0.00562855
0.00696444
0.00813948
0.00917738
0.0100883
0.0108843
0.0115763
0.0121748
0.0126894
0.0131288
0.0135008
0.0138122
0.0140692
0.0142771
0.0144393
0.0145575
0.0146309
0.0146567
0.0911607
0.0665942
0.0505623
0.0402518
0.0333452
0.0284164
0.0246482
0.0215609
0.0188504
0.016296
0.0137034
0.0108793
0.00762399
0.0038119
0.000358357
0.000177397
0.00166331
0.00289932
0.00375326
0.00437918
0.00482349
0.00507988
0.00511359
0.00489184
0.00437796
0.00353434
0.00235282
0.000938883
0.000161113
0.000236492
0.00225741
0.00429412
0.0060375
0.00756771
0.0089267
0.010133
0.0112007
0.0121387
0.012959
0.0136729
0.0142908
0.0148222
0.0152753
0.0156572
0.0159742
0.0162313
0.0164317
0.016577
0.0166662
0.0166969
0.0935953
0.0720228
0.0566028
0.0458839
0.0382895
0.0326684
0.0282746
0.0246292
0.0214085
0.0183687
0.0152985
0.0119966
0.00827546
0.00405595
0.000373451
0.000183687
0.00173278
0.00307086
0.00400881
0.0047019
0.00520242
0.00550366
0.005573
0.00536407
0.00484161
0.00395871
0.00269915
0.00115036
0.000194307
0.00024077
0.00225637
0.00442185
0.00633672
0.00804908
0.00958322
0.0109527
0.0121694
0.013244
0.0141881
0.015014
0.0157329
0.0163546
0.0168878
0.0173398
0.0177168
0.0180233
0.0182625
0.0184355
0.0185415
0.0185779
0.0953652
0.0762529
0.0616394
0.0508251
0.0427764
0.0366066
0.0316697
0.0275134
0.0238109
0.0203063
0.0167777
0.0130215
0.00886486
0.00427278
0.000387254
0.00018909
0.00177814
0.00319766
0.00421266
0.00497852
0.00554663
0.00590693
0.00602445
0.00584785
0.00533523
0.00443258
0.00311147
0.00143822
0.000223164
0.000243483
0.00221366
0.00448297
0.00654825
0.00843217
0.0101312
0.011655
0.0130119
0.014215
0.0152763
0.0162087
0.017024
0.0177327
0.0183436
0.0188639
0.0192995
0.0196548
0.0199325
0.0201333
0.0202565
0.0202995
0.0966876
0.0795681
0.065799
0.0550856
0.0467681
0.0401837
0.0347931
0.0301849
0.0260421
0.0221059
0.0181492
0.0139693
0.00940838
0.00447269
0.000400197
0.000193379
0.00180463
0.00328328
0.00437037
0.00521629
0.00586343
0.00629515
0.00647261
0.00634351
0.00585468
0.00494483
0.00356631
0.00176075
0.000247571
0.000244626
0.00214833
0.00449585
0.00669908
0.00873913
0.0105932
0.0122597
0.0137462
0.0150663
0.0162355
0.0172665
0.018172
0.0189626
0.0196471
0.0202326
0.0207246
0.0211271
0.0214424
0.0216707
0.0218111
0.0218603
0.0976954
0.0821818
0.0692145
0.0587122
0.0502628
0.0433798
0.037623
0.0326283
0.0280963
0.0237719
0.0194271
0.0148606
0.00992644
0.00466787
0.000412822
0.000197407
0.00181621
0.00332989
0.00448908
0.00542419
0.00616067
0.00667341
0.0069207
0.00684908
0.0063955
0.00548844
0.00405025
0.00209993
0.000270072
0.000244327
0.00206798
0.00447818
0.00681301
0.00899864
0.0109941
0.0127871
0.0143876
0.0158112
0.0170764
0.0181962
0.0191836
0.0200494
0.0208021
0.0214485
0.0219937
0.022441
0.0227921
0.0230471
0.0232045
0.0232595
0.0984739
0.0842514
0.0720068
0.061767
0.0532809
0.0461945
0.040153
0.034839
0.0299754
0.0253151
0.0206316
0.0157228
0.0104476
0.00487667
0.000425736
0.000200383
0.00180015
0.00334143
0.0045806
0.00561644
0.00644929
0.00704795
0.00737063
0.00736334
0.00695563
0.0060628
0.00456178
0.00243271
0.000293052
0.000243238
0.00197738
0.00445093
0.00692057
0.00924467
0.0113596
0.0132575
0.0149521
0.0164628
0.0178089
0.0190052
0.0200646
0.0209975
0.0218118
0.0225138
0.0231078
0.0235966
0.0239816
0.0242621
0.024435
0.0244956
0.09908
0.0858929
0.0742782
0.064315
0.0558546
0.0486402
0.0423869
0.0368203
0.031687
0.0267508
0.0217881
0.016593
0.0110148
0.00512698
0.000439832
0.00020459
0.00175024
0.00333506
0.00467417
0.00581719
0.00674584
0.00742773
0.00782527
0.00788621
0.00753605
0.00667202
0.00511844
0.0027769
0.000319351
0.000244332
0.00188201
0.00445192
0.0070689
0.00951301
0.0117187
0.0136907
0.0154537
0.0170304
0.0184409
0.0197001
0.0208201
0.0218106
0.0226787
0.02343
0.0240678
0.0245945
0.0250106
0.0253139
0.0255012
0.0255673
0.0995526
0.0871916
0.0761122
0.0664161
0.0580198
0.0507357
0.0443345
0.0385797
0.0332411
0.0280959
0.0229253
0.0175189
0.0117024
0.00549865
0.000455985
0.000209043
0.00168924
0.00336536
0.00482177
0.00606401
0.00707374
0.00782504
0.00828918
0.00841746
0.00813641
0.007326
0.00575675
0.00318917
0.000352464
0.000267965
0.0018224
0.00456683
0.00732972
0.00984805
0.0120959
0.0141042
0.015904
0.0175226
0.0189791
0.0202859
0.021454
0.0224916
0.023405
0.0241983
0.0248744
0.0254345
0.0258778
0.0262015
0.0264019
0.0264729
0.0999189
0.0882099
0.0775744
0.0681222
0.0598106
0.0525012
0.0460074
0.0401251
0.0346465
0.029364
0.024069
0.0185508
0.012615
0.00616321
0.000478287
0.000283822
0.00176833
0.00356995
0.00510923
0.00640762
0.00746202
0.00825714
0.00876708
0.00895608
0.00875388
0.00803424
0.00654376
0.00381085
0.000413753
0.000383434
0.00204444
0.00502098
0.00781439
0.0102927
0.0125104
0.0145071
0.0163118
0.017946
0.0194282
0.0207664
0.0219692
0.0230429
0.0239921
0.02482
0.025528
0.0261164
0.0265827
0.0269241
0.0271359
0.0272113
0.100198
0.088993
0.0787151
0.0694752
0.0612566
0.0539548
0.0474159
0.0414623
0.0359074
0.0305613
0.0252334
0.0197367
0.0139172
0.00775062
0.00185535
0.00165079
0.00273695
0.00420132
0.00564558
0.00690177
0.00793852
0.00873612
0.00926838
0.00949679
0.00938038
0.0087911
0.00755704
0.00545734
0.00264809
0.00260198
0.00395555
0.00619111
0.00858329
0.0108607
0.0129678
0.0149036
0.0166787
0.018304
0.0197906
0.021144
0.0223678
0.023466
0.0244414
0.0252958
0.0260292
0.0266397
0.0271248
0.0274808
0.0277022
0.0277814
0.100403
0.0895728
0.0795709
0.0705071
0.0623806
0.0551103
0.0485662
0.0425921
0.0370205
0.0316808
0.0264058
0.0210448
0.0155044
0.00986666
0.00459644
0.00371422
0.00430378
0.00532502
0.00648218
0.00757541
0.00851873
0.00926971
0.00979163
0.0100451
0.00999392
0.00955044
0.00860014
0.00707852
0.0052273
0.00503594
0.00587378
0.00753984
0.00949971
0.0115061
0.0134481
0.0152841
0.0170006
0.0185942
0.0200667
0.0214199
0.0226512
0.0237622
0.0247541
0.0256266
0.0263777
0.0270046
0.0275041
0.0278714
0.0281004
0.0281827
0.100542
0.0899708
0.0801669
0.0712395
0.0631977
0.0559757
0.0494596
0.0435097
0.0379748
0.0327029
0.0275514
0.0224059
0.0172238
0.0121392
0.00764833
0.0062025
0.00617443
0.00674461
0.00755112
0.00840597
0.00919601
0.00985455
0.0103333
0.0105899
0.0105808
0.0102732
0.00957565
0.00851396
0.00734639
0.00710722
0.00762936
0.00885626
0.0104377
0.0121679
0.013922
0.0156336
0.0172694
0.0188127
0.0202548
0.0215916
0.0228171
0.02393
0.0249288
0.0258111
0.0265726
0.0272101
0.0277193
0.0280947
0.0283291
0.0284138
0.100621
0.0901995
0.0805175
0.0716847
0.0637154
0.0565524
0.0500917
0.0442043
0.0387519
0.0335984
0.0286229
0.0237406
0.0189425
0.0143796
0.0105135
0.0087211
0.00817546
0.00829917
0.00875632
0.00934383
0.0099433
0.0104748
0.0108808
0.0111156
0.0111374
0.0109271
0.0104368
0.00971392
0.00897757
0.00876536
0.00912152
0.0100353
0.0113125
0.0127923
0.0143582
0.0159344
0.0174749
0.0189514
0.0203504
0.0216592
0.0228679
0.0239721
0.0249682
0.0258516
0.0266166
0.0272587
0.0277729
0.0281527
0.0283905
0.0284768
0.100642
0.0902638
0.0806278
0.0718455
0.0639332
0.0568356
0.0504524
0.04466
0.0393281
0.0343327
0.0295692
0.024973
0.0205525
0.0164507
0.0130402
0.0110919
0.0101136
0.00987786
0.0100061
0.0103281
0.0107231
0.011108
0.0114208
0.0116135
0.0116469
0.0114992
0.0111668
0.0106813
0.0102156
0.0100607
0.0103303
0.0110289
0.0120734
0.0133391
0.0147291
0.0161676
0.0176043
0.0190061
0.0203511
0.0216208
0.0228029
0.023889
0.0248731
0.0257494
0.0265109
0.0271518
0.027666
0.0280467
0.0282856
0.0283727
0.100603
0.0901616
0.0804944
0.071717
0.0638436
0.0568151
0.0505276
0.0448573
0.0396771
0.0348697
0.0303411
0.0260378
0.0219727
0.0182654
0.0151891
0.0131687
0.0119288
0.0113862
0.0112277
0.011301
0.0114942
0.0117261
0.0119337
0.0120687
0.0120942
0.0119879
0.011758
0.0114364
0.0111441
0.01105
0.0112701
0.0118278
0.0126937
0.0137809
0.0150099
0.0163171
0.0176492
0.0189712
0.0202536
0.0214756
0.0226219
0.0236813
0.0246451
0.0255061
0.0262573
0.0268911
0.0274006
0.0277787
0.0280164
0.0281035
0.100502
0.0898835
0.0801043
0.0712841
0.0634307
0.0564739
0.0502993
0.0447753
0.0397717
0.0351751
0.0308953
0.0268824
0.0231455
0.019774
0.0169554
0.0149252
0.013532
0.0127537
0.0123565
0.01221
0.012217
0.0122997
0.0123981
0.0124656
0.0124672
0.0123827
0.0122135
0.012002
0.0118214
0.0117773
0.0119686
0.0124326
0.013161
0.0140985
0.0151872
0.016372
0.0176029
0.0188404
0.0200543
0.0212215
0.0223242
0.0233491
0.0242853
0.0251241
0.0258577
0.026479
0.0269795
0.0273514
0.0275857
0.0276719
0.100332
0.0894132
0.0794361
0.0705246
0.0626732
0.0557912
0.0497455
0.0443903
0.0395876
0.0352183
0.0311954
0.0274668
0.0240323
0.0209515
0.0183465
0.0163496
0.0148759
0.0139301
0.0133447
0.0130149
0.0128564
0.0128008
0.0127928
0.0127884
0.012755
0.0126736
0.0125434
0.0123941
0.0122867
0.0122797
0.0124536
0.0128483
0.0134688
0.0142846
0.0152528
0.0163251
0.0174562
0.0186081
0.0197499
0.0208569
0.0219097
0.0228931
0.023795
0.0246054
0.0253158
0.0259185
0.0264053
0.0267675
0.026996
0.0270805
0.100083
0.0887256
0.0784588
0.0694079
0.0615436
0.0547433
0.0488443
0.0436796
0.0390977
0.0349733
0.0312129
0.0277631
0.0246094
0.0217873
0.0193722
0.0174388
0.0159361
0.0148815
0.0141566
0.01368
0.013382
0.0132044
0.0130977
0.013022
0.0129473
0.0128558
0.0127442
0.0126336
0.0125641
0.012582
0.0127421
0.0130859
0.0136231
0.0143382
0.0151995
0.0161678
0.0172035
0.0182705
0.019338
0.0203808
0.0213783
0.0223144
0.023176
0.023952
0.0246342
0.0252131
0.0256811
0.0260303
0.026251
0.0263329
0.0997417
0.0877859
0.0771305
0.0678949
0.0600095
0.053304
0.0475745
0.0426245
0.0382845
0.0344187
0.0309279
0.02775
0.0248627
0.02228
0.0200426
0.018195
0.0167018
0.0155873
0.0147667
0.0141793
0.0137695
0.0134888
0.0132947
0.0131521
0.013034
0.0129229
0.012815
0.0127239
0.0126778
0.0127106
0.0128529
0.013154
0.0136243
0.0142545
0.0150221
0.0158957
0.0168409
0.0178245
0.0188167
0.0197923
0.0207305
0.0216143
0.0224301
0.0231669
0.0238152
0.0243661
0.0248114
0.0251437
0.0253545
0.025433
0.0992875
0.0865462
0.0753971
0.0659379
0.0580345
0.0514469
0.0459164
0.0412093
0.0371337
0.0335415
0.030326
0.027419
0.0247874
0.0224309
0.0203694
0.0186235
0.0171703
0.0160357
0.015158
0.0144934
0.0139991
0.0136359
0.0133682
0.0131661
0.0130058
0.0128713
0.0127576
0.0126721
0.0126354
0.012675
0.0128033
0.013065
0.0134773
0.0140348
0.0147194
0.0155064
0.0163661
0.0172683
0.018185
0.0190913
0.0199667
0.0207941
0.0215595
0.0222523
0.0228622
0.0233807
0.0238001
0.0241126
0.0243106
0.0243848
0.0986929
0.0849424
0.0731901
0.0634817
0.0555802
0.0491479
0.043855
0.0394237
0.0356373
0.0323347
0.0294022
0.0267659
0.0243855
0.0222476
0.0203604
0.0187332
0.0173449
0.0162215
0.0153199
0.0146088
0.0140562
0.013631
0.0133049
0.0130529
0.0128546
0.0126959
0.0125708
0.0124832
0.0124477
0.0124853
0.0126013
0.0128283
0.0131883
0.0136813
0.0142914
0.0149987
0.0157776
0.0166009
0.0174422
0.0182779
0.0190879
0.0198554
0.0205666
0.021211
0.0217783
0.0222606
0.0226506
0.0229412
0.0231246
0.0231927
0.0979184
0.0828883
0.0704245
0.0604646
0.0526097
0.046388
0.0413822
0.037265
0.0337947
0.0307985
0.0281573
0.0257933
0.0236613
0.0217417
0.0200291
0.018526
0.0172307
0.0161456
0.0152478
0.0145174
0.0139302
0.0134632
0.0130942
0.012803
0.0125731
0.0123919
0.0122536
0.0121595
0.0121193
0.0121496
0.0122543
0.0124498
0.0127611
0.0131963
0.0137391
0.0143726
0.0150749
0.0158215
0.016588
0.0173523
0.0180948
0.0187995
0.0194535
0.0200456
0.0205667
0.0210093
0.0213669
0.0216328
0.0218001
0.0218621
0.0969071
0.0802674
0.0669977
0.0568222
0.0490924
0.0431581
0.0384999
0.0347398
0.0316136
0.0289405
0.0265986
0.0245093
0.0226249
0.0209217
0.0193915
0.0180248
0.0168318
0.0158061
0.0149371
0.0142107
0.0136114
0.0131222
0.0127263
0.0124083
0.0121547
0.0119552
0.0118042
0.0117017
0.011654
0.0116728
0.0117683
0.0119347
0.0122032
0.012583
0.0130637
0.0136282
0.0142576
0.0149298
0.0156224
0.0163146
0.0169881
0.0176277
0.0182215
0.0187583
0.0192301
0.0196301
0.0199524
0.0201915
0.0203416
0.0203968
0.0955737
0.0769227
0.0627902
0.0524944
0.0450115
0.0394646
0.035224
0.031866
0.029111
0.0267758
0.02474
0.0229269
0.0212892
0.0198018
0.018452
0.0172363
0.0161554
0.0152076
0.0143875
0.0136869
0.0130957
0.0126023
0.012195
0.0118623
0.011594
0.0113817
0.0112206
0.0111101
0.0110544
0.0110615
0.0111424
0.0112862
0.0115158
0.0118435
0.0122662
0.0127659
0.0133255
0.0139253
0.0145448
0.0151646
0.015768
0.0163412
0.016872
0.0173509
0.0177708
0.0181256
0.0184104
0.0186204
0.0187516
0.018799
0.093786
0.0726423
0.0576713
0.0474384
0.0403745
0.0353356
0.0315874
0.0286745
0.0263138
0.0243272
0.0226008
0.0210636
0.0196703
0.0183969
0.0172322
0.0161703
0.0152115
0.014356
0.0136019
0.012945
0.0123797
0.0118989
0.0114948
0.0111597
0.0108862
0.0106679
0.0105008
0.0103843
0.0103211
0.0103175
0.0103819
0.0105072
0.0107018
0.0109792
0.0113472
0.0117854
0.012278
0.0128072
0.0133543
0.0139016
0.0144343
0.014939
0.015405
0.0158241
0.0161901
0.0164978
0.0167432
0.0169226
0.0170331
0.0170718
0.0913274
0.067145
0.051518
0.0416493
0.0352267
0.0308277
0.027643
0.0252104
0.0232586
0.0216247
0.0202058
0.0189404
0.0177861
0.0167253
0.0157444
0.0148391
0.0140098
0.0132577
0.0125832
0.0119853
0.0114617
0.0110086
0.0106217
0.010296
0.0100272
0.00981046
0.00964269
0.0095234
0.00945466
0.00944113
0.00948899
0.00960039
0.00976025
0.00999309
0.0103069
0.010686
0.0111135
0.0115735
0.012049
0.0125243
0.012985
0.0134198
0.0138196
0.0141776
0.0144884
0.0147478
0.0149526
0.0151001
0.0151887
0.0152176
0.0878213
0.0600756
0.0442553
0.0351916
0.0296657
0.0260318
0.023465
0.0215322
0.0199913
0.0187048
0.0175839
0.0165807
0.0156595
0.0148037
0.0140034
0.0132553
0.0125599
0.0119192
0.0113352
0.010809
0.0103406
0.00992899
0.00957212
0.0092676
0.0090132
0.00880613
0.00864375
0.00852597
0.00845451
0.008433
0.00846648
0.00855973
0.00869357
0.00888486
0.0091455
0.0094671
0.009831
0.0102225
0.0106262
0.0110281
0.0114161
0.0117804
0.0121134
0.0124097
0.0126649
0.0128758
0.0130396
0.0131548
0.0132206
0.0132388
0.0825668
0.0510445
0.0359357
0.0282367
0.0238528
0.0210733
0.0191474
0.0177106
0.0165651
0.0156083
0.0147702
0.0140129
0.0133109
0.0126506
0.0120249
0.0114316
0.0108716
0.0103476
0.00986226
0.00941803
0.00901651
0.00865839
0.00834352
0.0080712
0.0078409
0.00765178
0.00750139
0.00739007
0.00731941
0.00729239
0.00731322
0.00738712
0.00749911
0.00765094
0.00785829
0.00812446
0.00842517
0.00874798
0.00907955
0.00940785
0.00972272
0.0100163
0.0102826
0.0105176
0.010718
0.0108812
0.0110051
0.0110885
0.0111315
0.011138
0.0741871
0.0398039
0.0268636
0.0210948
0.0180132
0.0161074
0.0147986
0.0138229
0.0130417
0.0123826
0.0117999
0.0112664
0.0107652
0.0102866
0.00982588
0.00938192
0.00895606
0.00855096
0.00816974
0.00781536
0.00749024
0.00719609
0.00693397
0.0067042
0.00650734
0.0063444
0.00621282
0.00611329
0.00604743
0.00601775
0.00602766
0.00608123
0.00617513
0.00628836
0.00644384
0.00665294
0.00689008
0.00714359
0.00740238
0.00765667
0.0078985
0.00812198
0.00832288
0.00849839
0.00864606
0.00876426
0.00885069
0.00890476
0.00892588
0.00892029
0.0600189
0.0267457
0.0177261
0.0142113
0.0124169
0.0113032
0.0105369
0.00995574
0.00948378
0.00907904
0.00871536
0.00837653
0.00805233
0.0077369
0.00742756
0.00712394
0.00682746
0.0065405
0.00626596
0.0060067
0.00576529
0.00554373
0.00534366
0.00516578
0.00501107
0.00488215
0.00477605
0.00469376
0.00463695
0.00460771
0.00460861
0.00464288
0.00471223
0.00479247
0.00489831
0.00504877
0.00522074
0.00540355
0.00558871
0.00576902
0.00593883
0.00609428
0.00623262
0.00635233
0.00645151
0.00652937
0.00658298
0.00661239
0.00661475
0.00659729
0.0365557
0.0137849
0.00958015
0.0080946
0.00733448
0.00684112
0.00648377
0.00620371
0.00596983
0.00576417
0.00557499
0.0053946
0.00521794
0.00504213
0.0048659
0.00468927
0.00451333
0.00433982
0.00417088
0.00400865
0.00385525
0.00371229
0.00358143
0.00346317
0.00335814
0.00326998
0.00319534
0.0031355
0.00309207
0.00306663
0.00306081
0.00307685
0.00311813
0.00316628
0.00322506
0.00331642
0.00342131
0.00353235
0.00364406
0.00375212
0.00385317
0.00394518
0.00402647
0.0040967
0.00415392
0.00419853
0.00422622
0.00423851
0.00422824
0.00420134
0.0100621
0.00436059
0.00349769
0.00321255
0.00305137
0.00292273
0.00281651
0.00272785
0.00265045
0.00258012
0.00251363
0.00244857
0.00238323
0.00231665
0.00224839
0.00217845
0.00210732
0.0020357
0.00196464
0.0018951
0.00182818
0.00176461
0.00170551
0.00165085
0.00160024
0.00155677
0.00151785
0.00148501
0.00145943
0.00144192
0.00143312
0.00143399
0.00144634
0.00146401
0.00148247
0.00151764
0.00155773
0.00160085
0.00164465
0.00168758
0.0017283
0.00176605
0.00179968
0.00182967
0.00185371
0.00187354
0.00188353
0.00188766
0.00187447
0.00184652
0.000512579
0.000371162
0.000319085
0.000294644
0.000280509
0.000270531
0.000262818
0.000256574
0.000251287
0.000246673
0.000242499
0.000238584
0.000234776
0.000230967
0.000227082
0.000223073
0.000218919
0.000214627
0.00021022
0.000205737
0.000201222
0.000196728
0.000192301
0.000188004
0.000183811
0.000179953
0.000176367
0.000173066
0.000170094
0.000167506
0.000165377
0.000163746
0.000162776
0.000162498
0.000162564
0.000163286
0.000164702
0.000166686
0.000169095
0.000171772
0.000174586
0.000177392
0.000180094
0.000182575
0.000184804
0.000186622
0.000188077
0.000188834
0.000188959
0.000187825
)
;

boundaryField
{
    floor
    {
        type            compressible::alphatWallFunction;
        Prt             0.85;
        value           nonuniform List<scalar> 
50
(
7.11524e-05
4.89329e-05
4.01329e-05
3.55474e-05
3.24727e-05
2.99032e-05
2.75462e-05
2.52619e-05
2.29712e-05
2.06181e-05
1.82054e-05
1.5603e-05
1.21939e-05
6.63213e-06
0
0
0
0
1.31351e-06
3.03327e-06
4.2106e-06
5.19697e-06
5.66969e-06
5.71045e-06
5.42313e-06
4.5305e-06
2.83678e-06
0
0
0
3.38193e-06
7.55683e-06
1.06442e-05
1.3025e-05
1.48817e-05
1.63059e-05
1.74232e-05
1.83029e-05
1.89987e-05
1.95461e-05
1.99755e-05
2.03346e-05
2.06921e-05
2.10197e-05
2.13e-05
2.15512e-05
2.17843e-05
2.20442e-05
2.23235e-05
2.27935e-05
)
;
    }
    ceiling
    {
        type            compressible::alphatWallFunction;
        Prt             0.85;
        value           nonuniform List<scalar> 
50
(
7.11479e-05
4.90798e-05
4.06932e-05
3.66964e-05
3.43651e-05
3.27104e-05
3.14259e-05
3.03825e-05
2.94965e-05
2.87214e-05
2.80186e-05
2.73579e-05
2.67138e-05
2.60679e-05
2.54078e-05
2.47247e-05
2.40153e-05
2.32803e-05
2.25236e-05
2.17517e-05
2.0972e-05
2.01937e-05
1.9425e-05
1.86766e-05
1.79443e-05
1.72688e-05
1.66396e-05
1.60593e-05
1.5536e-05
1.508e-05
1.47048e-05
1.44176e-05
1.42491e-05
1.42014e-05
1.4215e-05
1.43474e-05
1.46025e-05
1.4957e-05
1.53855e-05
1.58599e-05
1.6357e-05
1.68512e-05
1.73257e-05
1.77606e-05
1.81502e-05
1.84674e-05
1.87205e-05
1.88516e-05
1.88719e-05
1.8673e-05
)
;
    }
    inlet
    {
        type            calculated;
        value           nonuniform List<scalar> 
40
(
0.105877
0.105877
0.105877
0.105877
0.105876
0.105876
0.105876
0.105876
0.105876
0.105876
0.105876
0.105875
0.105875
0.105875
0.105875
0.105875
0.105875
0.105874
0.105874
0.105874
0.105874
0.105874
0.105874
0.105874
0.105873
0.105873
0.105873
0.105873
0.105873
0.105873
0.105873
0.105872
0.105872
0.105872
0.105872
0.105872
0.105872
0.105871
0.105871
0.105871
)
;
    }
    outlet
    {
        type            calculated;
        value           nonuniform List<scalar> 
40
(
0.000211632
0.00227262
0.00494827
0.0075891
0.0100995
0.0124574
0.0146567
0.016697
0.018578
0.0202996
0.0218604
0.0232596
0.0244957
0.0255674
0.026473
0.0272114
0.0277815
0.0281828
0.028414
0.0284769
0.0283728
0.0281036
0.027672
0.0270806
0.026333
0.025433
0.0243849
0.0231928
0.0218622
0.0203969
0.0187991
0.0170718
0.0152177
0.0132388
0.0111381
0.00892031
0.0065973
0.00420135
0.00184652
0.000187825
)
;
    }
    fixedWalls
    {
        type            empty;
    }
    baffleFacesThermoBaffle1D_master
    {
        type            compressible::alphatWallFunction;
        Prt             0.85;
        value           nonuniform List<scalar> 
16
(
0
0
5.06931e-06
8.62771e-06
1.12484e-05
1.32402e-05
1.48481e-05
1.61792e-05
1.72943e-05
1.82481e-05
1.90052e-05
1.97114e-05
2.02401e-05
2.0973e-05
2.17699e-05
3.42213e-05
)
;
    }
    baffleFacesThermoBaffle1D_slave
    {
        type            compressible::alphatWallFunction;
        Prt             0.85;
        value           nonuniform List<scalar> 
16
(
5.26544e-06
1.77473e-05
2.54893e-05
3.11297e-05
3.57323e-05
3.94279e-05
4.25103e-05
4.51899e-05
4.75842e-05
4.97634e-05
5.17966e-05
5.37734e-05
5.57836e-05
5.79766e-05
6.04699e-05
6.40498e-05
)
;
    }
    baffleFacesThermoBaffle3D_master
    {
        type            compressible::alphatWallFunction;
        Prt             0.85;
        value           nonuniform List<scalar> 
16
(
8.33599e-07
5.87518e-06
1.16122e-05
1.55168e-05
1.82557e-05
2.02518e-05
2.17672e-05
2.27972e-05
2.3592e-05
2.41101e-05
2.43527e-05
2.43456e-05
2.42164e-05
2.4455e-05
2.84158e-05
4.67413e-05
)
;
    }
    baffleFacesThermoBaffle3D_slave
    {
        type            compressible::alphatWallFunction;
        Prt             0.85;
        value           nonuniform List<scalar> 
16
(
0
1.71401e-06
3.92408e-06
4.53907e-06
4.93674e-06
5.06793e-06
6.22538e-06
1.04407e-05
1.59751e-05
2.0771e-05
2.48021e-05
2.84815e-05
3.22144e-05
3.6453e-05
4.17665e-05
5.14247e-05
)
;
    }
}


// ************************************************************************* //
