/*--------------------------------*- C++ -*----------------------------------*\
| =========                 |                                                 |
| \\      /  F ield         | OpenFOAM: The Open Source CFD Toolbox           |
|  \\    /   O peration     | Version:  v1906                                 |
|   \\  /    A nd           | Web:      www.OpenFOAM.com                      |
|    \\/     M anipulation  |                                                 |
\*---------------------------------------------------------------------------*/
FoamFile
{
    version     2.0;
    format      ascii;
    class       volScalarField;
    location    "1000";
    object      epsilon;
}
// * * * * * * * * * * * * * * * * * * * * * * * * * * * * * * * * * * * * * //

dimensions      [0 2 -3 0 0 0 0];


internalField   nonuniform List<scalar> 
2000
(
1.91876
0.722983
0.448021
0.339184
0.277726
0.232832
0.196445
0.165253
0.137718
0.113057
0.0912861
0.0714256
0.0503707
0.0260742
0.00524241
0.000857589
0.00414635
0.00791678
0.0121
0.0159327
0.0190243
0.0219405
0.0234809
0.02368
0.0228284
0.0201937
0.0157846
0.00930176
0.00304784
0.00395043
0.0164265
0.0293802
0.0426613
0.0554917
0.06722
0.0773272
0.0859644
0.0932191
0.0992464
0.104169
0.108139
0.111536
0.115002
0.118242
0.121062
0.123632
0.126052
0.128803
0.131814
0.137021
0.103702
0.172477
0.154631
0.131201
0.113352
0.0991002
0.0868771
0.0758609
0.0655848
0.055771
0.046317
0.0370136
0.0275783
0.0188422
0.0159384
0.00162353
0.00355827
0.00541726
0.00692568
0.00799555
0.00880099
0.00944753
0.00979571
0.00983911
0.00956309
0.00885618
0.00723189
0.00516568
0.00354374
0.00611639
0.0113981
0.016371
0.0209715
0.0253661
0.0294546
0.0330945
0.0362619
0.0389828
0.0413002
0.0432606
0.0449137
0.0463345
0.0476335
0.0487994
0.0498033
0.050662
0.0514051
0.0520699
0.052649
0.0532691
0.0285075
0.065932
0.077675
0.0763344
0.0714286
0.0658308
0.0600874
0.0543544
0.0486168
0.0428393
0.0370338
0.0312611
0.0258228
0.0220869
0.0298886
0.00366016
0.00377458
0.00493199
0.00585464
0.00654377
0.00708871
0.00751179
0.00778705
0.00787879
0.00776543
0.00730924
0.00629799
0.00487078
0.00483314
0.011663
0.010952
0.0137522
0.0167197
0.0196097
0.0222997
0.024715
0.0268247
0.028643
0.0301963
0.0315131
0.0326253
0.0335729
0.0344005
0.0351194
0.0357281
0.0362333
0.0366483
0.0369799
0.0372302
0.0373988
0.017356
0.0358729
0.0475437
0.0516279
0.0516825
0.0499968
0.0473547
0.0442334
0.0407958
0.0371307
0.0333452
0.0296507
0.0265991
0.0261813
0.0444014
0.00576188
0.00420345
0.00488666
0.00558326
0.00617192
0.00666762
0.00707759
0.00737339
0.00750976
0.00746148
0.00709415
0.00626499
0.00526708
0.00523715
0.0169676
0.0116006
0.0131316
0.0152919
0.0175051
0.0195967
0.0214867
0.0231445
0.0245735
0.0257899
0.0268162
0.0276796
0.0284072
0.0290261
0.0295499
0.0299846
0.0303362
0.0306133
0.030819
0.0309563
0.031014
0.014045
0.0246506
0.0333315
0.0382049
0.040154
0.0403416
0.0394851
0.0379471
0.0359765
0.0337242
0.0313639
0.0292088
0.0280119
0.0303784
0.0595072
0.00777359
0.00467983
0.00499819
0.00559639
0.00616801
0.00667871
0.00711625
0.00745189
0.00765463
0.00767286
0.00741009
0.00676219
0.0058999
0.00552719
0.0215714
0.0127142
0.0132334
0.0148367
0.0166153
0.0183359
0.0199044
0.0212851
0.022474
0.023483
0.0243316
0.0250411
0.0256328
0.0261265
0.0265352
0.0268672
0.0271292
0.0273282
0.0274678
0.0275513
0.0275706
0.0126278
0.0194595
0.0257867
0.0302228
0.0327595
0.0338853
0.0340419
0.0335493
0.0326006
0.0313887
0.0301316
0.0292191
0.0295583
0.0344535
0.0740318
0.00960228
0.00518446
0.00522882
0.00576394
0.00634894
0.00690789
0.00740287
0.00780794
0.00810326
0.00823261
0.00812716
0.00765483
0.00675945
0.00565435
0.0254424
0.0139342
0.0136957
0.0148577
0.0163066
0.017744
0.0190714
0.0202439
0.0212548
0.0221123
0.0228314
0.0234292
0.023923
0.0243284
0.0246575
0.0249193
0.0251207
0.0252686
0.0253672
0.0254203
0.0254232
0.011882
0.0166687
0.0214013
0.0251827
0.0277756
0.0293322
0.0300939
0.0302817
0.0300806
0.0296685
0.0293021
0.0294277
0.031113
0.0383813
0.087937
0.0112859
0.00567487
0.00554284
0.006049
0.00666984
0.00728503
0.00784875
0.0083382
0.00874111
0.00903479
0.00915154
0.00898206
0.00819169
0.00661153
0.0286558
0.015183
0.0143591
0.0151562
0.0163234
0.0175283
0.0186485
0.0196465
0.02051
0.0212434
0.0218575
0.0223658
0.0227819
0.0231189
0.0233875
0.0235964
0.0237531
0.0238642
0.0239344
0.0239682
0.0239627
0.0114357
0.0150033
0.0186654
0.0218489
0.0243004
0.0260244
0.027138
0.0277891
0.028133
0.0283517
0.0287192
0.0297418
0.0326484
0.0421267
0.101451
0.0128288
0.00618528
0.00593312
0.00643882
0.00710756
0.00778403
0.00841685
0.00899112
0.00950874
0.00997711
0.0103882
0.0107253
0.010858
0.0105865
0.030899
0.0164488
0.0151519
0.0156374
0.0165527
0.0175405
0.0184785
0.0193181
0.0200504
0.0206749
0.0211982
0.0216299
0.0219807
0.0222611
0.0224807
0.0226476
0.0227691
0.0228518
0.0229007
0.0229202
0.0229093
0.0111453
0.0139333
0.0168618
0.0195593
0.0218127
0.0235716
0.0248847
0.025851
0.0266028
0.0273228
0.0283046
0.0301122
0.0341337
0.0457237
0.11472
0.0142303
0.00674126
0.00641099
0.00694457
0.00766904
0.00840222
0.00909226
0.00973678
0.0103567
0.0109916
0.0116996
0.0126141
0.0142073
0.0175883
0.032646
0.017733
0.0160433
0.0162566
0.0169315
0.0177101
0.0184703
0.0191633
0.0197741
0.0202993
0.0207409
0.0211048
0.0213985
0.0216303
0.0218084
0.0219403
0.0220329
0.0220926
0.0221244
0.0221327
0.0221177
0.0109455
0.0132082
0.0156211
0.017938
0.0199937
0.0217247
0.0231459
0.0243273
0.0253865
0.0265081
0.0280077
0.0305086
0.0355632
0.0491977
0.127826
0.0155104
0.00736442
0.0070077
0.00759851
0.00837783
0.0091499
0.00987116
0.010557
0.0112494
0.0120192
0.0129845
0.0144272
0.0173841
0.0259833
0.0338129
0.019002
0.0170216
0.0169931
0.0174216
0.0179894
0.0185724
0.0191239
0.0196199
0.0200526
0.0204194
0.0207219
0.0209647
0.0211539
0.021296
0.021398
0.0214661
0.0215065
0.0215243
0.0215231
0.0215044
0.0108026
0.0126974
0.014739
0.0167613
0.0186404
0.0203167
0.0217918
0.0231202
0.0244113
0.0258548
0.027791
0.0309074
0.0369316
0.0525822
0.140991
0.016579
0.00809291
0.00778582
0.00845695
0.00927234
0.0100453
0.0107554
0.0114409
0.0121647
0.0130252
0.0141977
0.0161004
0.0202523
0.0350798
0.0343664
0.0202469
0.0181141
0.0178346
0.0180034
0.0183444
0.0187476
0.019159
0.0195471
0.0198937
0.0201917
0.0204385
0.0206356
0.0207868
0.0208974
0.0209733
0.0210203
0.0210441
0.0210496
0.0210405
0.021019
0.0106976
0.012327
0.0140961
0.0158907
0.0176194
0.019233
0.0207297
0.0221573
0.0236223
0.0253215
0.0276216
0.031281
0.0382232
0.0559138
0.154674
0.0176192
0.00899714
0.00886085
0.00960927
0.0104054
0.0111105
0.0117469
0.0123781
0.013086
0.0139927
0.0153299
0.0176608
0.0229994
0.0451748
0.0343236
0.0215907
0.0194031
0.0187957
0.0186524
0.0187446
0.018965
0.0192407
0.0195268
0.0197939
0.0200293
0.0202259
0.020382
0.0204996
0.0205824
0.0206355
0.0206641
0.0206735
0.0206682
0.0206522
0.0206287
0.0106191
0.012053
0.0136189
0.0152371
0.0168409
0.0183924
0.0198916
0.0213841
0.0229764
0.0248727
0.0274663
0.0315904
0.0393939
0.0592132
0.169562
0.0184221
0.0102729
0.0104423
0.0111932
0.0118387
0.0123627
0.0128412
0.0133542
0.0139932
0.0148995
0.0163624
0.0191246
0.0258953
0.0573757
0.0340026
0.0234664
0.0210452
0.019887
0.0193336
0.019158
0.0191965
0.0193444
0.0195363
0.0197325
0.0199121
0.0200641
0.020184
0.0202719
0.0203304
0.0203637
0.0203763
0.0203731
0.0203584
0.0203369
0.0203117
0.0105597
0.0118476
0.0132602
0.0147416
0.0162432
0.0177372
0.0192272
0.0207588
0.0224387
0.0244771
0.0272891
0.0317777
0.0403426
0.0624351
0.186874
0.0195832
0.0125371
0.0129404
0.0133818
0.0136201
0.0138018
0.0140223
0.0143497
0.0148663
0.0157183
0.017246
0.0204098
0.0289437
0.073817
0.0345497
0.026973
0.0232177
0.021067
0.0199978
0.0195429
0.0194144
0.0194494
0.0195595
0.0196939
0.0198252
0.0199386
0.0200272
0.0200896
0.0201272
0.0201434
0.0201421
0.0201279
0.0201056
0.0200795
0.0200527
0.0105146
0.0116926
0.0129893
0.0143645
0.0157831
0.0172257
0.0186992
0.0202493
0.021982
0.024108
0.0270516
0.0317598
0.0408401
0.0649484
0.208118
0.0209154
0.0175064
0.0170067
0.0163132
0.0157453
0.0153919
0.0152568
0.0153387
0.0156854
0.0164264
0.0179265
0.0213357
0.031809
0.098683
0.0454068
0.0345839
0.0258736
0.0221685
0.0205543
0.0198572
0.0195917
0.0195381
0.0195828
0.0196661
0.0197574
0.0198386
0.0199011
0.0199421
0.0199622
0.0199639
0.0199509
0.0199279
0.0198993
0.0198692
0.0198412
0.0104805
0.011576
0.012785
0.0140783
0.0154303
0.0168276
0.0182799
0.0198319
0.0215857
0.0237449
0.0267221
0.0314498
0.0405627
0.0653482
0.240026
0.0518441
0.0301391
0.0231312
0.019889
0.0180864
0.0170447
0.0164858
0.0162915
0.0164336
0.0170087
0.0183574
0.021633
0.0332242
0.158524
0.128
0.0461415
0.0277646
0.0227929
0.0208872
0.0200586
0.0197103
0.0195959
0.0195949
0.0196402
0.0197005
0.0197563
0.019798
0.0198217
0.0198276
0.0198176
0.0197952
0.0197653
0.0197316
0.0196985
0.0196695
0.0104551
0.0114895
0.0126331
0.0138642
0.0151634
0.0165216
0.0179495
0.0194895
0.0212364
0.023377
0.0262838
0.0307695
0.0389632
0.0582646
0.135471
0.076902
0.0426841
0.0292973
0.0233952
0.0203438
0.0186215
0.017645
0.0171674
0.0171052
0.0174669
0.0185387
0.0210538
0.0276204
0.0491551
0.0469369
0.0342049
0.0262989
0.0226325
0.0209296
0.0201229
0.0197568
0.0196158
0.019588
0.0196097
0.0196483
0.0196857
0.0197118
0.0197227
0.0197176
0.0196986
0.0196696
0.0196345
0.0195971
0.0195617
0.019532
0.0104369
0.0114276
0.0125241
0.0137093
0.0149677
0.0162928
0.0176946
0.0192116
0.0209278
0.0230056
0.025756
0.0298092
0.0365839
0.0497274
0.0785891
0.064736
0.0444206
0.0324605
0.0258954
0.0221762
0.0199792
0.0186698
0.0179453
0.0176788
0.0178381
0.0185815
0.0203158
0.0239713
0.0307798
0.0312179
0.0279958
0.0243577
0.0220419
0.0207474
0.0200673
0.0197358
0.019597
0.0195606
0.0195706
0.0195965
0.0196221
0.0196383
0.0196403
0.0196278
0.0196031
0.0195698
0.0195312
0.0194915
0.0194547
0.0194244
0.0104248
0.0113867
0.0124517
0.0136051
0.0148338
0.0161315
0.0175069
0.0189928
0.0206602
0.0226427
0.0251821
0.0287224
0.034091
0.0427921
0.0554688
0.0520108
0.0417208
0.0330167
0.0271785
0.0234258
0.0210322
0.0195178
0.018608
0.0181644
0.0181463
0.0185749
0.0196968
0.0217669
0.0246378
0.02533
0.024376
0.0226945
0.0213296
0.0204387
0.0199239
0.0196582
0.0195431
0.0195124
0.0195208
0.0195421
0.0195625
0.0195737
0.0195713
0.0195549
0.0195277
0.0194923
0.0194523
0.0194115
0.0193741
0.0193437
0.0104183
0.0113647
0.0124121
0.0135468
0.0147559
0.0160325
0.0173824
0.018832
0.0204384
0.0223058
0.0246105
0.0276399
0.03182
0.0376126
0.0440503
0.0433496
0.0380663
0.0322433
0.027532
0.024128
0.0217681
0.020176
0.0191509
0.018572
0.0183886
0.0185786
0.0192465
0.020431
0.0218586
0.0224344
0.022183
0.0214162
0.0206486
0.0200803
0.0197264
0.0195381
0.0194594
0.0194448
0.0194595
0.0194832
0.0195043
0.0195155
0.019513
0.0194967
0.0194696
0.0194346
0.0193951
0.0193548
0.0193177
0.0192874
0.0104172
0.0113605
0.0124038
0.0135323
0.014732
0.0159941
0.0173209
0.0187317
0.0202704
0.022014
0.0240834
0.0266496
0.0298974
0.0338515
0.0375317
0.0375301
0.0348752
0.0309452
0.0273261
0.0244128
0.0222275
0.0206564
0.0195793
0.018907
0.0185893
0.0186006
0.0189403
0.0196081
0.0203824
0.0208032
0.0207879
0.0204657
0.0200539
0.0197192
0.0195017
0.0193891
0.0193522
0.0193594
0.0193867
0.019419
0.0194459
0.0194618
0.0194634
0.0194508
0.0194269
0.0193948
0.0193577
0.0193194
0.0192836
0.0192538
0.0104213
0.0113745
0.012427
0.013562
0.0147628
0.0160178
0.0173252
0.0186975
0.0201661
0.0217856
0.0236335
0.0258018
0.0283443
0.0311333
0.0334415
0.0336652
0.0322121
0.029574
0.0268357
0.0244218
0.0224745
0.0209867
0.0199064
0.0191779
0.0187602
0.0186276
0.0187478
0.0190932
0.0195198
0.0198041
0.019867
0.0197529
0.0195527
0.0193785
0.0192678
0.0192224
0.0192263
0.0192583
0.0193033
0.0193488
0.0193862
0.0194108
0.0194206
0.0194156
0.019398
0.0193713
0.0193389
0.0193041
0.0192706
0.0192417
0.0104313
0.0114078
0.012484
0.0136391
0.0148525
0.0161086
0.017401
0.0187365
0.0201367
0.0216368
0.0232842
0.0251203
0.0271351
0.0291684
0.0307254
0.0309946
0.030137
0.0283271
0.0262523
0.0242778
0.0225753
0.0212016
0.0201503
0.0193947
0.0189068
0.0186619
0.0186334
0.018766
0.0189837
0.0191598
0.0192346
0.0192124
0.0191351
0.0190668
0.0190357
0.0190444
0.0190847
0.0191443
0.0192103
0.0192726
0.0193245
0.0193618
0.0193833
0.0193893
0.0193817
0.019363
0.0193372
0.0193076
0.0192777
0.0192501
0.0104477
0.011463
0.0125792
0.0137696
0.0150081
0.0162745
0.017558
0.0188599
0.0201935
0.0215827
0.0230517
0.0246137
0.0262314
0.0277581
0.0288645
0.0291117
0.0285647
0.0272772
0.0256819
0.0240625
0.0225872
0.0213354
0.0203307
0.0195685
0.0190333
0.0187058
0.018562
0.0185599
0.018636
0.0187255
0.0187814
0.0187964
0.0187871
0.0187851
0.0188078
0.018859
0.0189331
0.0190197
0.0191083
0.0191905
0.0192602
0.0193141
0.019351
0.0193712
0.0193765
0.0193691
0.0193525
0.01933
0.0193048
0.019279
0.0104716
0.0115439
0.0127191
0.0139625
0.0152407
0.0165275
0.0178083
0.0190803
0.0203515
0.0216364
0.0229484
0.0242833
0.0255969
0.0267693
0.0275814
0.0277813
0.0273988
0.0264391
0.0251821
0.0238388
0.0225567
0.0214198
0.0204678
0.0197111
0.0191448
0.0187562
0.018526
0.0184216
0.0184032
0.018422
0.0184476
0.0184688
0.01849
0.0185264
0.0185866
0.0186713
0.0187743
0.0188864
0.0189985
0.0191027
0.0191934
0.0192674
0.0193231
0.0193611
0.0193822
0.0193893
0.019385
0.0193717
0.0193525
0.0193291
0.0105047
0.0116562
0.0129137
0.0142313
0.0155656
0.0168843
0.0181688
0.0194143
0.020626
0.0218139
0.0229843
0.0241284
0.0252027
0.0261148
0.0267179
0.0268603
0.0265615
0.0258053
0.0247816
0.0236453
0.0225186
0.0214819
0.0205808
0.019835
0.0192478
0.0188129
0.0185164
0.0183347
0.0182398
0.0182002
0.0181944
0.0182068
0.0182363
0.0182913
0.0183745
0.0184831
0.0186099
0.0187458
0.0188817
0.0190098
0.0191243
0.0192217
0.0193001
0.0193592
0.0193998
0.0194243
0.019435
0.0194335
0.0194219
0.0194016
0.0105493
0.0118083
0.0131776
0.0145952
0.0160051
0.0173675
0.0186616
0.0198825
0.0210358
0.0221308
0.023172
0.0241498
0.0250289
0.0257386
0.0261808
0.0262607
0.025996
0.025362
0.0244946
0.0235079
0.0225008
0.0215451
0.0206877
0.019953
0.0193501
0.0188781
0.0185282
0.0182848
0.0181273
0.0180355
0.0179931
0.0179903
0.0180163
0.0180759
0.018171
0.0182956
0.0184417
0.0185994
0.0187592
0.0189128
0.0190539
0.0191781
0.0192829
0.0193668
0.0194308
0.0194761
0.0195043
0.0195172
0.0195155
0.0194991
0.0106087
0.0120123
0.0135317
0.0150816
0.0165896
0.0180082
0.019316
0.0205116
0.0216045
0.0226069
0.0235253
0.0243533
0.0250637
0.0256072
0.0259151
0.0259291
0.0256636
0.0250971
0.0243293
0.0234454
0.0225244
0.0216297
0.0208055
0.0200783
0.019461
0.0189567
0.0185612
0.018265
0.0180532
0.0179131
0.017833
0.0178068
0.0178221
0.0178774
0.0179758
0.0181102
0.0182715
0.0184492
0.0186329
0.0188137
0.018984
0.0191385
0.0192734
0.0193865
0.0194778
0.0195477
0.0195969
0.0196264
0.0196366
0.0196258
0.0106877
0.0122864
0.0140069
0.0157304
0.0173626
0.018849
0.0201715
0.0213367
0.0223625
0.0232676
0.0240637
0.0247497
0.0253074
0.0257017
0.0258907
0.0258383
0.0255387
0.0250037
0.024293
0.0234726
0.0226087
0.0217549
0.0209515
0.0202254
0.0195915
0.0190561
0.0186185
0.0182736
0.0180126
0.017826
0.0177066
0.0176513
0.0176514
0.0176954
0.0177901
0.017929
0.0181021
0.0182982
0.0185061
0.0187156
0.018918
0.0191064
0.0192754
0.0194224
0.0195456
0.0196443
0.0197183
0.0197675
0.0197917
0.0197871
0.0107936
0.0126583
0.0146501
0.0166002
0.0183862
0.0199492
0.0212815
0.0224044
0.0233497
0.0241464
0.0248141
0.0253583
0.0257693
0.0260239
0.0260923
0.0259632
0.0256186
0.0250816
0.0243932
0.0236065
0.0227734
0.0219405
0.0211442
0.0204104
0.0197553
0.0191869
0.0187076
0.0183155
0.0180061
0.0177733
0.0176127
0.0175224
0.0175004
0.0175311
0.0176171
0.017756
0.0179379
0.0181511
0.0183836
0.0186237
0.0188614
0.0190878
0.0192958
0.0194816
0.0196417
0.0197741
0.0198773
0.0199499
0.0199902
0.0199929
0.0109379
0.0131718
0.0155345
0.0177801
0.0197512
0.0213929
0.0227196
0.023778
0.0246202
0.0252896
0.0258152
0.0262098
0.0264717
0.0265866
0.0265385
0.0263138
0.0259106
0.0253452
0.0246504
0.023868
0.0230411
0.0222095
0.0214055
0.0206533
0.0199697
0.0193639
0.0188402
0.0183996
0.0180401
0.0177597
0.0175555
0.0174272
0.0173763
0.0173901
0.017463
0.0175982
0.0177864
0.0180158
0.0182736
0.0185468
0.0188234
0.0190919
0.0193449
0.0195755
0.0197785
0.0199502
0.0200877
0.0201882
0.0202481
0.0202601
0.0111395
0.0139006
0.0167794
0.019409
0.0215937
0.0233012
0.02459
0.0255459
0.0262497
0.0267621
0.0271233
0.0273524
0.027455
0.0274233
0.0272455
0.0269157
0.0264352
0.0258179
0.0250902
0.0242863
0.0234422
0.0225916
0.0217637
0.0209807
0.0202588
0.0196084
0.019035
0.0185417
0.0181289
0.0177965
0.0175451
0.0173751
0.0172883
0.0172835
0.0173396
0.0174674
0.0176598
0.0179051
0.0181895
0.0184989
0.0188183
0.0191355
0.01944
0.0197224
0.0199755
0.0201933
0.0203715
0.0205052
0.020589
0.0206127
0.0114318
0.0149749
0.0185888
0.0217124
0.0241228
0.0258542
0.0270435
0.0278356
0.0283479
0.0286601
0.0288239
0.0288619
0.0287878
0.028591
0.0282689
0.0278172
0.0272383
0.0265447
0.0257581
0.0249067
0.0240209
0.0231299
0.0222594
0.0214301
0.0206572
0.0199518
0.0193205
0.0187677
0.0182956
0.017906
0.0176011
0.0173837
0.0172577
0.0172265
0.0172655
0.0173834
0.0175788
0.01784
0.0181532
0.0185022
0.0188714
0.0192451
0.0196095
0.0199526
0.0202645
0.020537
0.0207635
0.0209372
0.0210504
0.021089
0.0118801
0.0166445
0.0213324
0.025071
0.0276718
0.0293279
0.0303089
0.0308404
0.0310835
0.0311336
0.0310541
0.0308645
0.03058
0.030195
0.0297052
0.0291074
0.0284041
0.0276059
0.026731
0.0258031
0.0248479
0.023891
0.0229553
0.02206
0.0212192
0.0204442
0.0197427
0.01912
0.0185797
0.0181248
0.0177593
0.0174879
0.0173161
0.0172513
0.0172722
0.0173777
0.0175753
0.0178547
0.0182016
0.0185983
0.019026
0.0194662
0.0199016
0.0203169
0.0206992
0.0210373
0.0213224
0.0215448
0.0216944
0.0217523
0.0126277
0.0194382
0.0257292
0.0301601
0.0327946
0.0341676
0.0347534
0.0348739
0.034736
0.0344367
0.0340426
0.033573
0.0330351
0.0324228
0.0317293
0.03095
0.0300863
0.0291466
0.028146
0.0271046
0.0260448
0.024989
0.0239578
0.0229692
0.0220367
0.0211707
0.0203806
0.0196724
0.0190503
0.0185186
0.0180824
0.0177483
0.0175241
0.0174194
0.0174234
0.0175126
0.0177138
0.0180163
0.0184049
0.0188597
0.019359
0.0198804
0.0204027
0.0209064
0.0213749
0.0217937
0.022151
0.0224338
0.0226295
0.0227127
0.014046
0.0246272
0.0332972
0.0382518
0.0404693
0.0411488
0.0410243
0.0405035
0.0398086
0.0390345
0.0382273
0.0373963
0.0365365
0.0356354
0.0346806
0.0336641
0.0325847
0.0314481
0.0302669
0.0290584
0.0278423
0.0266389
0.0254669
0.0243437
0.0232824
0.022292
0.0213843
0.0205657
0.0198406
0.0192138
0.0186916
0.0182825
0.0179972
0.0178435
0.0178314
0.0179076
0.018117
0.0184524
0.018897
0.0194285
0.020021
0.0206473
0.0212811
0.0218978
0.0224765
0.0229978
0.0234473
0.023807
0.0240625
0.0241802
0.0173567
0.0358331
0.0475772
0.0519498
0.0526098
0.0518139
0.0504273
0.0488957
0.0473787
0.0459267
0.0445459
0.0432185
0.0419191
0.0406213
0.0393032
0.0379505
0.0365577
0.0351278
0.0336712
0.0322033
0.0307423
0.0293074
0.0279161
0.0265862
0.0253308
0.0241572
0.0230811
0.0221083
0.0212427
0.0204891
0.0198553
0.019351
0.0189923
0.0187858
0.0187553
0.0188251
0.0190563
0.0194467
0.0199773
0.020621
0.0213467
0.0221204
0.0229092
0.0236812
0.0244105
0.0250703
0.0256444
0.0261059
0.0264418
0.0266086
0.0285067
0.0658379
0.0779778
0.077434
0.0738052
0.0699059
0.0662973
0.0630925
0.0602694
0.0577618
0.0554968
0.0534045
0.0514236
0.0495022
0.0476025
0.0456999
0.0437831
0.0418523
0.0399168
0.0379922
0.0360968
0.034251
0.0324724
0.0307816
0.0291919
0.02771
0.0263583
0.0251387
0.024053
0.0231063
0.0223082
0.021669
0.0212155
0.0209521
0.0209096
0.0209886
0.0212806
0.0217825
0.0224696
0.023307
0.0242549
0.0252683
0.0263048
0.0273199
0.0282827
0.0291512
0.029913
0.0305185
0.0309688
0.0312082
0.103691
0.17233
0.156102
0.135001
0.119997
0.10933
0.101221
0.0947383
0.0893823
0.084824
0.0808263
0.0772117
0.0738451
0.0706249
0.0674822
0.0643746
0.0612829
0.0582075
0.055162
0.0521689
0.0492524
0.0464415
0.0437571
0.041231
0.038876
0.0367114
0.034765
0.0330206
0.0314757
0.0301369
0.0290201
0.0281339
0.027532
0.0272172
0.0271845
0.0273415
0.0278382
0.0286425
0.0297169
0.0310057
0.0324517
0.0339851
0.0355464
0.0370604
0.0384962
0.0397647
0.0408873
0.0417261
0.0423534
0.0426843
1.91876
0.728511
0.462903
0.364505
0.314558
0.282211
0.258796
0.240825
0.226284
0.214087
0.203443
0.193787
0.184694
0.175886
0.167196
0.158531
0.149876
0.141269
0.132782
0.124506
0.116528
0.108934
0.101789
0.0951606
0.0889802
0.0835403
0.078693
0.0744051
0.070687
0.0675595
0.0650661
0.0632068
0.0621449
0.0618574
0.0619621
0.0628341
0.0645157
0.0668963
0.0698509
0.0732266
0.0768851
0.0806482
0.084383
0.087913
0.0911643
0.0938742
0.096078
0.0972372
0.0974208
0.0956832
)
;

boundaryField
{
    floor
    {
        Cmu             0.09;
        kappa           0.41;
        E               9.8;
        type            epsilonWallFunction;
        value           nonuniform List<scalar> 
50
(
1.91876
0.722983
0.448021
0.339184
0.277726
0.232832
0.196445
0.165253
0.137718
0.113057
0.0912861
0.0714256
0.0503707
0.0260742
0.00524241
0.000857589
0.00414635
0.00791678
0.0121
0.0159327
0.0190243
0.0219405
0.0234809
0.02368
0.0228284
0.0201937
0.0157846
0.00930176
0.00304784
0.00395043
0.0164265
0.0293802
0.0426613
0.0554917
0.06722
0.0773272
0.0859644
0.0932191
0.0992464
0.104169
0.108139
0.111536
0.115002
0.118242
0.121062
0.123632
0.126052
0.128803
0.131814
0.137021
)
;
        lowReCorrection 0;
    }
    ceiling
    {
        Cmu             0.09;
        kappa           0.41;
        E               9.8;
        type            epsilonWallFunction;
        value           nonuniform List<scalar> 
50
(
1.91876
0.728511
0.462903
0.364505
0.314558
0.282211
0.258796
0.240825
0.226284
0.214087
0.203443
0.193787
0.184694
0.175886
0.167196
0.158531
0.149876
0.141269
0.132782
0.124506
0.116528
0.108934
0.101789
0.0951606
0.0889802
0.0835403
0.078693
0.0744051
0.070687
0.0675595
0.0650661
0.0632068
0.0621449
0.0618574
0.0619621
0.0628341
0.0645157
0.0668963
0.0698509
0.0732266
0.0768851
0.0806482
0.084383
0.087913
0.0911643
0.0938742
0.096078
0.0972372
0.0974208
0.0956832
)
;
        lowReCorrection 0;
    }
    inlet
    {
        type            fixedValue;
        value           uniform 0.01;
    }
    outlet
    {
        type            zeroGradient;
    }
    fixedWalls
    {
        type            empty;
    }
    baffleFacesThermoBaffle1D_master
    {
        Cmu             0.09;
        kappa           0.41;
        E               9.8;
        type            epsilonWallFunction;
        value           nonuniform List<scalar> 
16
(
0.000857589
0.00162353
0.00366016
0.00576188
0.00777359
0.00960228
0.0112859
0.0128288
0.0142303
0.0155104
0.016579
0.0176192
0.0184221
0.0195832
0.0209154
0.0518441
)
;
        lowReCorrection 0;
    }
    baffleFacesThermoBaffle1D_slave
    {
        Cmu             0.09;
        kappa           0.41;
        E               9.8;
        type            epsilonWallFunction;
        value           nonuniform List<scalar> 
16
(
0.00524241
0.0159384
0.0298886
0.0444014
0.0595072
0.0740318
0.087937
0.101451
0.11472
0.127826
0.140991
0.154674
0.169562
0.186874
0.208118
0.240026
)
;
        lowReCorrection 0;
    }
    baffleFacesThermoBaffle3D_master
    {
        Cmu             0.09;
        kappa           0.41;
        E               9.8;
        type            epsilonWallFunction;
        value           nonuniform List<scalar> 
16
(
0.00395043
0.00611639
0.011663
0.0169676
0.0215714
0.0254424
0.0286558
0.030899
0.032646
0.0338129
0.0343664
0.0343236
0.0340026
0.0345497
0.0454068
0.128
)
;
        lowReCorrection 0;
    }
    baffleFacesThermoBaffle3D_slave
    {
        Cmu             0.09;
        kappa           0.41;
        E               9.8;
        type            epsilonWallFunction;
        value           nonuniform List<scalar> 
16
(
0.00304784
0.00354374
0.00483314
0.00523715
0.00552719
0.00565435
0.00661153
0.0105865
0.0175883
0.0259833
0.0350798
0.0451748
0.0573757
0.073817
0.098683
0.158524
)
;
        lowReCorrection 0;
    }
}


// ************************************************************************* //
