/*--------------------------------*- C++ -*----------------------------------*\
| =========                 |                                                 |
| \\      /  F ield         | OpenFOAM: The Open Source CFD Toolbox           |
|  \\    /   O peration     | Version:  v1906                                 |
|   \\  /    A nd           | Web:      www.OpenFOAM.com                      |
|    \\/     M anipulation  |                                                 |
\*---------------------------------------------------------------------------*/
FoamFile
{
    version     2.0;
    format      ascii;
    class       volScalarField;
    location    "1000";
    object      k;
}
// * * * * * * * * * * * * * * * * * * * * * * * * * * * * * * * * * * * * * //

dimensions      [0 2 -2 0 0 0 0];


internalField   nonuniform List<scalar> 
2000
(
0.0963833
0.0502813
0.0365471
0.0303582
0.0265703
0.0236235
0.0210931
0.0187965
0.0166457
0.0145938
0.0126543
0.0107449
0.008513
0.00548832
0.00216318
0.000646631
0.00160943
0.00247662
0.00328585
0.00394749
0.00444327
0.00488691
0.005113
0.00514143
0.00501822
0.00462541
0.0039244
0.00275994
0.00150666
0.00178938
0.00402834
0.0059374
0.0076133
0.00907201
0.0103092
0.0113184
0.0121464
0.0128207
0.0133677
0.0138063
0.0141551
0.0144501
0.0147478
0.0150237
0.0152619
0.0154773
0.0156789
0.0159065
0.0161537
0.0165768
0.0992625
0.0838628
0.070524
0.0615997
0.055069
0.0497044
0.0449844
0.0406536
0.0365501
0.032562
0.0285869
0.0244399
0.0197571
0.0136715
0.00540757
0.0011783
0.00349676
0.00511717
0.00665593
0.00794337
0.00893868
0.00970648
0.0101872
0.0103375
0.0101277
0.00932186
0.00761827
0.00519353
0.0019836
0.0028545
0.00833665
0.0121908
0.0156389
0.018643
0.0212155
0.0234057
0.0252538
0.0268009
0.0280907
0.0291613
0.0300453
0.0307814
0.0313997
0.0319153
0.0323445
0.0327053
0.0330224
0.0333098
0.0336054
0.0338701
0.0991809
0.0923025
0.0829625
0.0748486
0.0680834
0.062232
0.0569541
0.0520205
0.0472583
0.0425245
0.0376743
0.0325031
0.0266654
0.0193431
0.00822328
0.00202564
0.0052435
0.00718045
0.00886159
0.0102453
0.0113307
0.0121381
0.0125781
0.012638
0.0121956
0.0110499
0.00899122
0.00621296
0.00244016
0.00438788
0.0114021
0.015846
0.0197795
0.023296
0.0263921
0.0290761
0.0313698
0.0333125
0.0349479
0.0363168
0.0374563
0.0384041
0.0391928
0.0398459
0.0403835
0.0408242
0.0411884
0.0414863
0.0417308
0.0418763
0.0991508
0.0948632
0.0883631
0.0816747
0.0754756
0.0697937
0.064489
0.0594156
0.0544304
0.0493966
0.0441668
0.0385435
0.0321855
0.0241974
0.0107064
0.0027411
0.00652699
0.00867413
0.0104597
0.0119383
0.0131074
0.0139584
0.0143451
0.0143198
0.0136819
0.0122465
0.00986033
0.00673417
0.00257447
0.00563277
0.0135629
0.0184046
0.0226414
0.0264651
0.0298738
0.0328607
0.035439
0.0376404
0.0395042
0.0410715
0.0423829
0.0434756
0.0443829
0.045131
0.045742
0.0462347
0.0466264
0.0469257
0.0471366
0.0472264
0.0991525
0.0959303
0.0911072
0.0856649
0.0802083
0.0749365
0.0698415
0.0648496
0.059859
0.0547524
0.049392
0.0435862
0.0369729
0.028489
0.0130144
0.00334675
0.00756445
0.00989417
0.0117923
0.0133792
0.0146479
0.0155607
0.0159628
0.0158867
0.0151177
0.0134586
0.0107371
0.00703292
0.00266884
0.00661008
0.0152855
0.0204496
0.0249157
0.0289609
0.0325908
0.0357944
0.0385787
0.0409693
0.0430033
0.044722
0.0461656
0.0473709
0.0483712
0.049194
0.0498623
0.050395
0.0508083
0.0511103
0.0513036
0.0513666
0.0991716
0.0965045
0.09269
0.0881961
0.0834429
0.0786471
0.0738651
0.0690723
0.0642006
0.0591552
0.0538091
0.0479687
0.041232
0.0323438
0.0150542
0.0038529
0.0084489
0.0109538
0.012986
0.014702
0.0160905
0.0170979
0.0175692
0.0175068
0.0166948
0.0149072
0.01187
0.00736976
0.00270911
0.00737881
0.0167166
0.022171
0.0268377
0.0310624
0.0348633
0.038231
0.0411703
0.043706
0.0458736
0.047713
0.049263
0.0505603
0.0516374
0.0525223
0.0532385
0.0538052
0.0542381
0.0545459
0.0547315
0.0547814
0.0991984
0.0968747
0.0937054
0.0899121
0.0857607
0.0814306
0.0769962
0.0724609
0.0677807
0.0628785
0.0576352
0.0518479
0.0450614
0.0358271
0.0168847
0.004291
0.00922527
0.0119171
0.0141055
0.015975
0.0175059
0.018636
0.0192278
0.0192394
0.0184739
0.0166782
0.0134582
0.00815073
0.00300138
0.00798764
0.0179046
0.0236488
0.0285126
0.0328962
0.0368366
0.0403315
0.0433906
0.0460393
0.0483125
0.0502488
0.0518859
0.0532593
0.0544011
0.055339
0.0560967
0.0566936
0.0571453
0.0574611
0.0576449
0.0576883
0.0992287
0.0971444
0.0944157
0.0911438
0.087489
0.0835831
0.0794954
0.0752411
0.070792
0.0660825
0.0609973
0.055318
0.0485294
0.0389936
0.018573
0.00467366
0.00992445
0.0128272
0.0151994
0.0172464
0.0189401
0.0202114
0.0209606
0.0210875
0.0204429
0.0187562
0.0155713
0.00993006
0.00410322
0.00839918
0.0188559
0.0249242
0.0299978
0.0345328
0.0385907
0.0421856
0.0453361
0.0480715
0.0504271
0.0524405
0.0541485
0.0555851
0.0567815
0.057765
0.0585591
0.0591831
0.0596528
0.0599779
0.0601633
0.0602037
0.0992604
0.0973574
0.0949476
0.0920719
0.0888231
0.085291
0.0815314
0.0775615
0.0733614
0.0688732
0.0639808
0.0584469
0.0516939
0.0419003
0.020159
0.00500811
0.0105738
0.0137204
0.0163104
0.0185586
0.0204304
0.0218582
0.0227623
0.0230346
0.0225509
0.0210479
0.0180616
0.0125351
0.00575907
0.00871238
0.0195773
0.0260283
0.0313362
0.0360198
0.0401772
0.0438481
0.0470652
0.049864
0.0522816
0.0543551
0.0561197
0.0576081
0.0588504
0.0598729
0.0606989
0.0613474
0.061834
0.0621688
0.0623575
0.0623968
0.0992923
0.0975346
0.095367
0.0927998
0.0898836
0.0866762
0.0832183
0.0795243
0.0755781
0.0713256
0.0666484
0.0612894
0.0546086
0.0446057
0.0216666
0.0053041
0.0111939
0.0146354
0.0174858
0.0199548
0.0220078
0.0235872
0.0246337
0.0250547
0.0247405
0.0234457
0.0207164
0.0154757
0.00747525
0.00891837
0.0200764
0.0269967
0.0325689
0.037396
0.041633
0.0453555
0.0486153
0.0514561
0.0539174
0.0560354
0.0578438
0.0593739
0.060654
0.0617097
0.0625633
0.0632336
0.0637358
0.0640804
0.0642732
0.0643124
0.0993237
0.0976866
0.0957101
0.0933888
0.0907473
0.0878204
0.0846354
0.0812023
0.0775062
0.0734951
0.0690486
0.0638918
0.0573268
0.0471776
0.0231297
0.005545
0.0118199
0.0156288
0.018785
0.0214829
0.023702
0.0254089
0.0265713
0.0271245
0.0269665
0.0258785
0.0234108
0.0184616
0.00913504
0.00901464
0.0204186
0.0278901
0.0337463
0.0386989
0.0429873
0.0467336
0.0500117
0.0528739
0.0553615
0.0575098
0.0593506
0.060913
0.0622238
0.0633071
0.0641844
0.0648739
0.0653903
0.065744
0.0659412
0.065981
0.0993539
0.0978196
0.0959982
0.0938767
0.0914639
0.0887789
0.0858383
0.0826477
0.0791926
0.0754229
0.0712184
0.0662932
0.0599019
0.0496961
0.024603
0.0057747
0.0125008
0.0167872
0.0202889
0.0232003
0.0255434
0.0273317
0.028569
0.0292213
0.0291996
0.0283154
0.0261133
0.0214684
0.0108152
0.00900664
0.0206892
0.0288069
0.0349334
0.0399668
0.0442643
0.0480006
0.0512711
0.0541345
0.0566323
0.0587978
0.0606603
0.0622465
0.0635813
0.0646872
0.0655845
0.0662906
0.0668197
0.067182
0.0673835
0.0674242
0.0993823
0.0979368
0.0962437
0.094287
0.0920661
0.0895894
0.0868661
0.083898
0.080671
0.0771387
0.0731848
0.0685237
0.0623855
0.0522695
0.0261574
0.00594871
0.013296
0.0182506
0.0221129
0.0251736
0.0275597
0.029358
0.0306133
0.03132
0.0314106
0.0307325
0.0288242
0.0245031
0.0126851
0.00894891
0.0210906
0.0299042
0.0362093
0.0412365
0.0454823
0.0491686
0.0524041
0.0552488
0.0577415
0.0599122
0.0617868
0.0633892
0.0647419
0.0658658
0.0667797
0.0675
0.0680404
0.0684104
0.0686162
0.068658
0.0994086
0.09804
0.0964544
0.0946349
0.0925756
0.0902782
0.0877464
0.0849798
0.0819655
0.0786618
0.0749635
0.0706007
0.0648208
0.0550296
0.0279087
0.00619611
0.0144796
0.0202906
0.0244156
0.0274703
0.0297719
0.0314842
0.0326875
0.0333979
0.0335695
0.0330861
0.0315276
0.0276621
0.0150074
0.0090437
0.0220518
0.031402
0.0376553
0.042535
0.0466509
0.0502428
0.0534158
0.0562229
0.0586966
0.0608616
0.0627397
0.0643515
0.0657167
0.0668543
0.0677817
0.0685141
0.0690642
0.0694413
0.0696512
0.0696942
0.0994325
0.0981304
0.0966352
0.0949302
0.0930069
0.0908629
0.0884985
0.085912
0.083092
0.080004
0.0765583
0.0725215
0.0672215
0.0581214
0.0299857
0.00647316
0.0168022
0.0233558
0.0273684
0.0301447
0.0321843
0.033697
0.0347718
0.0354314
0.0356468
0.0353353
0.0341728
0.0310619
0.0182134
0.0108463
0.0245472
0.0335551
0.0393195
0.0438655
0.0477677
0.0512221
0.054307
0.0570594
0.0595016
0.0616514
0.0635253
0.0651403
0.0665132
0.0676609
0.068599
0.0693415
0.0699002
0.0702838
0.0704975
0.0705419
0.0994536
0.0982084
0.0967888
0.0951792
0.0933698
0.091356
0.089136
0.0867075
0.0840615
0.0811705
0.0779641
0.07426
0.0695535
0.0617185
0.0329757
0.0118594
0.0225361
0.0280364
0.0310918
0.0331974
0.0347732
0.0359708
0.0368431
0.0373983
0.0376136
0.0374348
0.0366748
0.0346864
0.0249819
0.0216543
0.0299792
0.0364211
0.0411506
0.0451955
0.0488166
0.052099
0.0550748
0.057758
0.060158
0.0622843
0.0641475
0.0657604
0.0671369
0.0682914
0.0692378
0.0699888
0.070555
0.0709444
0.0711619
0.0712077
0.0994717
0.0982743
0.0969172
0.0953861
0.0936709
0.091766
0.0896685
0.087376
0.0848815
0.0821639
0.0791693
0.0757623
0.0715979
0.0653482
0.0487703
0.0347242
0.0333222
0.0342036
0.0354283
0.0365254
0.0374755
0.0382662
0.0388759
0.0392792
0.0394469
0.0393409
0.0388699
0.0378335
0.0351609
0.0340732
0.0358637
0.0393377
0.04296
0.0464616
0.049772
0.0528617
0.0557135
0.0583165
0.0606655
0.0627615
0.0646082
0.0662145
0.067591
0.0687496
0.0697024
0.0704604
0.0710334
0.0714283
0.0716495
0.0716968
0.0994867
0.0983281
0.0970214
0.0955535
0.0939146
0.0920987
0.0901028
0.0879245
0.0855582
0.0829874
0.0801694
0.0770006
0.0732247
0.0681123
0.0584592
0.0477364
0.0425882
0.0405055
0.0399197
0.0399367
0.0401977
0.0405342
0.0408426
0.0410587
0.0411372
0.0410424
0.0407229
0.0401308
0.0390786
0.0386348
0.0395166
0.0417612
0.0445882
0.0476031
0.050607
0.053497
0.0562162
0.0587312
0.0610224
0.0630829
0.0649083
0.0665041
0.0678776
0.0690381
0.0699956
0.0707596
0.0713387
0.0717389
0.0719637
0.0720125
0.0994983
0.0983698
0.097102
0.095683
0.0941037
0.0923583
0.0904439
0.0883586
0.0860976
0.0836471
0.0809717
0.0779889
0.0745007
0.0700818
0.063348
0.0552676
0.0494088
0.0459516
0.0441213
0.0432226
0.0428383
0.0427203
0.0427143
0.0427226
0.0426826
0.0425507
0.0423022
0.0419312
0.0414393
0.0413306
0.0420105
0.0436747
0.0459649
0.048578
0.0512988
0.0539923
0.0565755
0.0589979
0.0612258
0.063244
0.0650438
0.0666263
0.0679948
0.0691557
0.0701168
0.0708862
0.071471
0.0718765
0.0721052
0.0721557
0.0995064
0.0983993
0.0971593
0.0957755
0.0942399
0.0925474
0.0906956
0.0886829
0.0865054
0.0841509
0.0815882
0.0787497
0.0754809
0.0715082
0.0661826
0.0598153
0.0542882
0.050354
0.0478036
0.0462337
0.045305
0.0447696
0.044456
0.0442493
0.0440735
0.0438802
0.0436478
0.0433851
0.0431409
0.0431874
0.0438105
0.0451527
0.0470729
0.049362
0.0518302
0.0543364
0.0567837
0.0591078
0.0612699
0.0632442
0.0650163
0.0665833
0.0679449
0.0691048
0.0700687
0.070843
0.0714335
0.0718442
0.0720769
0.0721294
0.099511
0.0984164
0.0971932
0.0958314
0.0943242
0.0926676
0.0908601
0.0889011
0.0867869
0.0845066
0.0820323
0.0793068
0.0762097
0.0725581
0.0680316
0.0627569
0.0577818
0.0538034
0.0508962
0.0488811
0.0475304
0.0466382
0.046043
0.0456268
0.0453076
0.0450332
0.0447808
0.0445618
0.0444319
0.0445475
0.0451255
0.0462649
0.0479169
0.0499433
0.052189
0.0545178
0.0568315
0.0590587
0.0611525
0.0630806
0.0648238
0.0663738
0.0677272
0.0688851
0.0698511
0.0706299
0.071226
0.0716421
0.0718791
0.0719336
0.099512
0.0984211
0.0972036
0.0958506
0.0943565
0.0927192
0.0909388
0.0890153
0.0869463
0.0847214
0.0823157
0.0796806
0.0767235
0.0733196
0.0693036
0.064757
0.0603002
0.05646
0.0534162
0.0511304
0.0494722
0.0482904
0.0474483
0.0468364
0.0463736
0.0460065
0.0457103
0.0454945
0.0454087
0.0455456
0.046071
0.0470626
0.048508
0.0503168
0.0523615
0.0545281
0.0567138
0.0588461
0.060871
0.0627515
0.0644641
0.0659956
0.0673397
0.0684949
0.0694627
0.070246
0.0708476
0.0712694
0.0715109
0.0715678
0.0995094
0.0984132
0.0971901
0.0958322
0.0943361
0.0927018
0.0909313
0.0890264
0.0869858
0.0848001
0.0824471
0.0798854
0.0770453
0.073839
0.070183
0.0661444
0.0621144
0.0584725
0.0554153
0.0529807
0.0511094
0.0497014
0.0486502
0.0478613
0.04726
0.0467946
0.046439
0.0461991
0.046116
0.0462439
0.0467099
0.0475804
0.0488566
0.0504767
0.0523465
0.0543614
0.056426
0.058465
0.0604211
0.0622532
0.0639338
0.0654459
0.0667801
0.0679322
0.0689016
0.0696893
0.0702968
0.0707245
0.0709709
0.0710305
0.0995033
0.0983925
0.0971518
0.095775
0.0942611
0.0926131
0.090836
0.088934
0.0869063
0.0847454
0.0824314
0.0799298
0.0771879
0.0741437
0.0707573
0.067089
0.0633984
0.0599595
0.056952
0.0544481
0.0524358
0.0508561
0.0496321
0.048687
0.0479557
0.0473908
0.0469662
0.0466839
0.0465774
0.0466766
0.0470773
0.0478378
0.048968
0.0504271
0.0521395
0.0540142
0.0559628
0.0579106
0.0597983
0.0615816
0.0632295
0.0647216
0.0660454
0.0671941
0.068165
0.0689572
0.0695709
0.0700049
0.0702566
0.0703192
0.0994937
0.0983585
0.0970878
0.095677
0.0941285
0.0924495
0.0906487
0.088733
0.0867038
0.0845547
0.0822689
0.0798178
0.0771577
0.0742477
0.0710716
0.0676824
0.0642609
0.0610084
0.0580788
0.0555552
0.053454
0.0517471
0.0503827
0.0493022
0.0484514
0.047789
0.0472895
0.0469522
0.0468005
0.0468586
0.0471899
0.047851
0.0488523
0.050168
0.0517372
0.0534811
0.055319
0.0571779
0.0589979
0.0607324
0.0623472
0.0638188
0.0651318
0.066277
0.0672494
0.0680465
0.0686665
0.0691073
0.0693648
0.0694307
0.0994807
0.098311
0.0969964
0.0955348
0.0939336
0.0922052
0.0903633
0.0884182
0.0863735
0.0842245
0.081956
0.0795433
0.0769531
0.0741575
0.0711482
0.0679758
0.0647697
0.0616807
0.0588381
0.0563242
0.0541708
0.0523713
0.0508944
0.0496979
0.0487388
0.0479809
0.0474038
0.0470039
0.0467982
0.0468091
0.047064
0.0476296
0.048514
0.0496991
0.0511362
0.0527576
0.0544894
0.056262
0.0580152
0.0597008
0.0612822
0.062733
0.0640351
0.0651767
0.0661508
0.0669527
0.0675796
0.0680275
0.0682912
0.0683609
0.0994643
0.0982491
0.0968751
0.095344
0.0936695
0.0918717
0.0899703
0.0879797
0.085906
0.0837456
0.0814847
0.0791018
0.07657
0.073869
0.0709994
0.0679971
0.0649658
0.062018
0.059262
0.0567743
0.0545938
0.0527283
0.0511621
0.049867
0.0488105
0.0479635
0.0473081
0.0468403
0.0465718
0.0465278
0.0467088
0.0471815
0.047956
0.0490197
0.0503336
0.0518391
0.0534693
0.0551576
0.056845
0.0584819
0.0600297
0.0614594
0.0627503
0.0638882
0.0648639
0.065671
0.0663049
0.0667603
0.0670306
0.0671044
0.0994447
0.098172
0.0967205
0.0950975
0.0933263
0.0914366
0.0894558
0.0874032
0.0852871
0.0831046
0.0808428
0.0784818
0.0759986
0.0733773
0.0706208
0.0677628
0.0648738
0.0620462
0.0593726
0.0569197
0.0547294
0.0528178
0.0511814
0.0498034
0.0486605
0.0477304
0.0469984
0.0464607
0.0461263
0.0460178
0.0461288
0.0465096
0.0471791
0.0481286
0.0493262
0.0507214
0.0522534
0.0538595
0.0554817
0.05707
0.0585839
0.0599921
0.0612715
0.0624056
0.0633829
0.0641952
0.0648361
0.0652992
0.0655766
0.0656549
0.099422
0.0980779
0.0965271
0.0947853
0.0928894
0.0908821
0.0888004
0.0866687
0.084497
0.0822827
0.0800124
0.0776664
0.0752239
0.0726707
0.0700094
0.067267
0.0644999
0.0617826
0.0591851
0.0567707
0.0545816
0.0526394
0.0509484
0.0495007
0.0482819
0.0472754
0.0464697
0.0458618
0.0454593
0.0452811
0.0453247
0.0456147
0.0461831
0.0470236
0.0481103
0.0493995
0.0508363
0.0523618
0.0539193
0.0554588
0.0569383
0.0583245
0.0595919
0.0607217
0.0617003
0.0625176
0.0631656
0.0636365
0.063921
0.0640042
0.0993964
0.0979645
0.0962867
0.0943922
0.0923376
0.0901831
0.087977
0.0857485
0.0835089
0.0812541
0.0789691
0.0766331
0.0742252
0.0717313
0.0691523
0.0665092
0.0638463
0.0612223
0.0586968
0.0563246
0.0541461
0.0521861
0.0504545
0.0489506
0.0476663
0.0465905
0.0457152
0.0450385
0.0445669
0.0443152
0.0442959
0.0444948
0.0449657
0.0457014
0.0466814
0.047868
0.0492118
0.0506577
0.0521507
0.0536408
0.0550851
0.0564484
0.057703
0.0588278
0.0598071
0.0606289
0.0612837
0.0617621
0.0620537
0.0621421
0.0993679
0.0978279
0.0959866
0.0938951
0.0916397
0.0893035
0.0869475
0.0846051
0.0822865
0.0799844
0.0776806
0.0753516
0.0729748
0.0705346
0.0680294
0.0654743
0.0629037
0.0603645
0.0579072
0.0555794
0.0534188
0.0514514
0.0496912
0.0481424
0.0468028
0.0456656
0.0447257
0.043983
0.0434434
0.0431199
0.0430291
0.0431488
0.0435232
0.0441569
0.0450334
0.0461201
0.0473724
0.0487391
0.0501672
0.051607
0.0530148
0.0543538
0.0555942
0.0567128
0.0576917
0.0585171
0.0591777
0.059663
0.0599614
0.060055
0.0993371
0.0976615
0.0956057
0.093258
0.0907488
0.0881912
0.0856588
0.0831865
0.0807803
0.0784273
0.0761036
0.0737815
0.0714353
0.069047
0.0666111
0.0641371
0.0616518
0.0591925
0.056802
0.0545213
0.0523856
0.0504206
0.0486429
0.0470607
0.0456759
0.0444858
0.0434878
0.0426834
0.0420785
0.041685
0.04152
0.0415683
0.0418479
0.0423823
0.0431578
0.0441464
0.0453081
0.0465954
0.0479576
0.0493455
0.0507148
0.0520273
0.0532514
0.0543618
0.0553386
0.0561659
0.056831
0.0573218
0.0576262
0.0577248
0.0993043
0.0974541
0.0951087
0.0924224
0.0895929
0.0867692
0.0840349
0.0814203
0.0789228
0.0765197
0.0741795
0.0718684
0.0695564
0.0672216
0.0648544
0.0624596
0.060057
0.0576766
0.055354
0.0531251
0.0510219
0.0490696
0.047286
0.0456821
0.0442632
0.0430301
0.0419819
0.0411218
0.040456
0.0399956
0.0397554
0.0397418
0.0399272
0.0403654
0.041042
0.0419336
0.043005
0.044212
0.0455063
0.0468398
0.0481676
0.0494504
0.050655
0.0517542
0.0527259
0.0535526
0.0542198
0.0547141
0.0550226
0.0551254
0.0992704
0.0971844
0.0944316
0.0912901
0.0880581
0.0849222
0.0819653
0.0792038
0.0766186
0.0741735
0.0718263
0.0695358
0.0672661
0.0649911
0.0626972
0.0603846
0.0580671
0.0557685
0.0535186
0.0513488
0.0492878
0.0473598
0.0455832
0.0439707
0.0425305
0.0412659
0.0401776
0.0392701
0.0385501
0.0380282
0.0377188
0.0376364
0.037744
0.0380869
0.0386661
0.0394614
0.0404418
0.0415668
0.0427904
0.0440655
0.0453473
0.0465956
0.0477758
0.048859
0.0498214
0.0506434
0.051309
0.0518033
0.0521129
0.0522182
0.0992374
0.0968086
0.0934525
0.0896895
0.0859593
0.082471
0.0792842
0.0763848
0.0737282
0.0712596
0.0689237
0.0666703
0.0644578
0.0622553
0.0600454
0.0578237
0.0555994
0.0533909
0.0512232
0.0491235
0.0471178
0.0452289
0.0434749
0.0418697
0.0404233
0.0391418
0.0380266
0.0370831
0.0363186
0.0357433
0.0353714
0.0352211
0.0352634
0.0355133
0.0359967
0.0366961
0.0375843
0.0386243
0.0397726
0.0409835
0.0422125
0.0434189
0.0445673
0.0456273
0.0465735
0.0473847
0.048043
0.0485319
0.0488376
0.0489418
0.099209
0.0962237
0.0919179
0.0873035
0.0829814
0.0791257
0.0757292
0.072725
0.0700327
0.0675746
0.065281
0.0630925
0.0609614
0.0588528
0.0567455
0.0546318
0.0525163
0.0504136
0.0483444
0.0463323
0.0444008
0.0425709
0.0408603
0.0392831
0.0378504
0.0365713
0.0354469
0.0344835
0.0336885
0.0330717
0.0326473
0.0324323
0.0324269
0.032584
0.0329744
0.0335778
0.0343714
0.0353216
0.0363875
0.037525
0.0386907
0.039844
0.040949
0.0419744
0.0428938
0.0436845
0.0443267
0.0448019
0.0450953
0.0451914
0.0991947
0.095144
0.0892526
0.0835077
0.0785528
0.0743788
0.0708468
0.0678124
0.0651517
0.0627629
0.0605626
0.0584835
0.0564732
0.0544937
0.0525211
0.0505449
0.0485668
0.0465977
0.044655
0.0427592
0.0409313
0.0391905
0.0375537
0.0360344
0.0346438
0.0333949
0.0322871
0.0313271
0.0305223
0.0298824
0.0294205
0.0291533
0.0290978
0.0291856
0.0294833
0.0299894
0.0306837
0.0315355
0.0325069
0.0335561
0.0346412
0.0357228
0.0367653
0.0377376
0.0386129
0.0393672
0.039979
0.0404275
0.0406943
0.0407687
0.0992115
0.0925874
0.0840013
0.0769451
0.0715071
0.0672118
0.0637223
0.0608065
0.0583003
0.0560837
0.0540644
0.0521713
0.0503503
0.0485624
0.0467829
0.0449999
0.043213
0.0414304
0.0396669
0.0379399
0.0362679
0.0346684
0.033157
0.0317458
0.0304438
0.02927
0.0282204
0.0273015
0.0265207
0.0258872
0.0254129
0.0251127
0.0250155
0.0250519
0.0252586
0.0256632
0.0262476
0.0269838
0.0278371
0.0287693
0.029742
0.0307182
0.031664
0.0325501
0.0333498
0.0340399
0.0345958
0.0349954
0.0352102
0.0352336
0.0992716
0.084249
0.071814
0.0640045
0.0588103
0.0549399
0.0518943
0.0494091
0.0473069
0.04547
0.0438105
0.0422626
0.0407765
0.0393173
0.0378629
0.0364019
0.0349331
0.0334626
0.0320026
0.0305673
0.0291723
0.0278315
0.0265597
0.0253659
0.0242511
0.0232447
0.0223363
0.0215325
0.0208416
0.0202715
0.0198322
0.0195336
0.0194073
0.0194143
0.0195252
0.0198132
0.0202555
0.0208293
0.0215055
0.0222526
0.0230394
0.0238343
0.0246075
0.0253352
0.025991
0.0265572
0.0270017
0.0273075
0.027416
0.0273172
0.0963832
0.0505372
0.0373518
0.0318505
0.0288697
0.0268545
0.0253473
0.0241595
0.0231764
0.0223355
0.0215885
0.0208995
0.0202401
0.019591
0.01894
0.0182794
0.0176075
0.0169264
0.0162411
0.0155586
0.0148861
0.0142316
0.0136016
0.0130039
0.0124338
0.011921
0.0114544
0.0110336
0.0106619
0.0103441
0.010087
0.00989305
0.00978082
0.0097502
0.00976077
0.0098514
0.010026
0.010271
0.0105714
0.0109096
0.0112704
0.0116358
0.0119929
0.0123257
0.0126283
0.0128778
0.0130791
0.0131845
0.0132015
0.0130441
)
;

boundaryField
{
    floor
    {
        type            kqRWallFunction;
        value           nonuniform List<scalar> 
50
(
0.0963833
0.0502813
0.0365471
0.0303582
0.0265703
0.0236235
0.0210931
0.0187965
0.0166457
0.0145938
0.0126543
0.0107449
0.008513
0.00548832
0.00216318
0.000646631
0.00160943
0.00247662
0.00328585
0.00394749
0.00444327
0.00488691
0.005113
0.00514143
0.00501822
0.00462541
0.0039244
0.00275994
0.00150666
0.00178938
0.00402834
0.0059374
0.0076133
0.00907201
0.0103092
0.0113184
0.0121464
0.0128207
0.0133677
0.0138063
0.0141551
0.0144501
0.0147478
0.0150237
0.0152619
0.0154773
0.0156789
0.0159065
0.0161537
0.0165768
)
;
    }
    ceiling
    {
        type            kqRWallFunction;
        value           nonuniform List<scalar> 
50
(
0.0963832
0.0505372
0.0373518
0.0318505
0.0288697
0.0268545
0.0253473
0.0241595
0.0231764
0.0223355
0.0215885
0.0208995
0.0202401
0.019591
0.01894
0.0182794
0.0176075
0.0169264
0.0162411
0.0155586
0.0148861
0.0142316
0.0136016
0.0130039
0.0124338
0.011921
0.0114544
0.0110336
0.0106619
0.0103441
0.010087
0.00989305
0.00978082
0.0097502
0.00976077
0.0098514
0.010026
0.010271
0.0105714
0.0109096
0.0112704
0.0116358
0.0119929
0.0123257
0.0126283
0.0128778
0.0130791
0.0131845
0.0132015
0.0130441
)
;
    }
    inlet
    {
        type            fixedValue;
        value           uniform 0.1;
    }
    outlet
    {
        type            zeroGradient;
    }
    fixedWalls
    {
        type            empty;
    }
    baffleFacesThermoBaffle1D_master
    {
        type            kqRWallFunction;
        value           nonuniform List<scalar> 
16
(
0.000646631
0.0011783
0.00202564
0.0027411
0.00334675
0.0038529
0.004291
0.00467366
0.00500811
0.0053041
0.005545
0.0057747
0.00594871
0.00619611
0.00647316
0.0118594
)
;
    }
    baffleFacesThermoBaffle1D_slave
    {
        type            kqRWallFunction;
        value           nonuniform List<scalar> 
16
(
0.00216318
0.00540757
0.00822328
0.0107064
0.0130144
0.0150542
0.0168847
0.018573
0.020159
0.0216666
0.0231297
0.024603
0.0261574
0.0279087
0.0299857
0.0329757
)
;
    }
    baffleFacesThermoBaffle3D_master
    {
        type            kqRWallFunction;
        value           nonuniform List<scalar> 
16
(
0.00178938
0.0028545
0.00438788
0.00563277
0.00661008
0.00737881
0.00798764
0.00839918
0.00871238
0.00891837
0.00901464
0.00900664
0.00894891
0.0090437
0.0108463
0.0216543
)
;
    }
    baffleFacesThermoBaffle3D_slave
    {
        type            kqRWallFunction;
        value           nonuniform List<scalar> 
16
(
0.00150666
0.0019836
0.00244016
0.00257447
0.00266884
0.00270911
0.00300138
0.00410322
0.00575907
0.00747525
0.00913504
0.0108152
0.0126851
0.0150074
0.0182134
0.0249819
)
;
    }
}


// ************************************************************************* //
