/*--------------------------------*- C++ -*----------------------------------*\
| =========                 |                                                 |
| \\      /  F ield         | OpenFOAM: The Open Source CFD Toolbox           |
|  \\    /   O peration     | Version:  v1906                                 |
|   \\  /    A nd           | Web:      www.OpenFOAM.com                      |
|    \\/     M anipulation  |                                                 |
\*---------------------------------------------------------------------------*/
FoamFile
{
    version     2.0;
    format      ascii;
    class       volScalarField;
    location    "1000";
    object      nut;
}
// * * * * * * * * * * * * * * * * * * * * * * * * * * * * * * * * * * * * * //

dimensions      [0 2 -1 0 0 0 0];


internalField   nonuniform List<scalar> 
2000
(
0.000435738
0.000314722
0.000268318
0.000244546
0.00022878
0.000215719
0.000203837
0.000192419
0.000181074
0.000169545
0.000157874
0.000145475
0.000129488
0.00010397
8.03337e-05
4.3881e-05
5.62242e-05
6.97288e-05
8.03066e-05
8.80228e-05
9.33984e-05
9.79635e-05
0.000100203
0.000100468
9.92811e-05
9.53512e-05
8.78124e-05
7.37015e-05
6.70322e-05
7.29468e-05
8.89101e-05
0.000107989
0.00012228
0.000133482
0.000142296
0.000149102
0.000154462
0.000158695
0.000162048
0.000164688
0.000166757
0.000168488
0.000170213
0.000171801
0.000173162
0.000174384
0.00017552
0.000176793
0.000178167
0.000180491
0.00855119
0.00366986
0.0028948
0.00260293
0.00240785
0.00224366
0.00209633
0.00196075
0.00183322
0.00171102
0.00158795
0.00145238
0.00127386
0.000892774
0.000165121
7.69653e-05
0.000309269
0.000435034
0.000575702
0.000710238
0.000817066
0.000897528
0.000953488
0.000977495
0.000965315
0.000883082
0.000722276
0.000469938
9.99282e-05
0.000119897
0.000548773
0.000817015
0.0010496
0.00123316
0.00137529
0.00148981
0.00158286
0.00165831
0.00171955
0.00176914
0.00180891
0.00184041
0.00186286
0.00187857
0.00189053
0.00190018
0.00190921
0.00191778
0.00193051
0.0019382
0.0310556
0.0116298
0.0079749
0.00660525
0.00584054
0.0052947
0.00485858
0.00448082
0.00413439
0.00379909
0.00344933
0.00304151
0.00247819
0.00152461
0.000203623
0.000100895
0.000655565
0.000940857
0.00120716
0.00144366
0.00163
0.00176521
0.00182853
0.00182447
0.00172379
0.00150343
0.00115525
0.000713248
0.000110879
0.000148574
0.00106836
0.00164327
0.00210594
0.00249079
0.00281119
0.0030786
0.00330166
0.0034869
0.00364025
0.00376674
0.00387023
0.00395374
0.00401874
0.00406877
0.0041081
0.0041397
0.00416619
0.00418877
0.00420979
0.00422009
0.0509785
0.0225773
0.0147806
0.0116288
0.00992001
0.00876866
0.00790407
0.00718279
0.00653597
0.00591431
0.00526502
0.00450931
0.00350506
0.00201274
0.000232343
0.000117362
0.000912143
0.00138574
0.00176358
0.00207828
0.00231903
0.00247759
0.00251178
0.0024575
0.00225791
0.00190268
0.00139671
0.00077489
0.0001139
0.000168293
0.00142713
0.00232155
0.00301709
0.00360101
0.00409867
0.004523
0.00488378
0.005189
0.00544603
0.00566144
0.0058407
0.00598832
0.00610779
0.0062035
0.00628024
0.00634185
0.00639141
0.00643049
0.00645966
0.00647224
0.0629981
0.0335991
0.0224126
0.0172874
0.0144196
0.0125278
0.0111182
0.00997422
0.0089636
0.00800031
0.00700045
0.00585365
0.00439205
0.00240454
0.000256166
0.000129678
0.00110044
0.00176274
0.0022363
0.00261191
0.00289135
0.00306229
0.00307747
0.00296748
0.00268075
0.00219997
0.00153436
0.000754517
0.00011598
0.000182297
0.00165392
0.00284407
0.00376574
0.00454315
0.00521351
0.00579327
0.00629305
0.0067217
0.00708748
0.00739802
0.00765994
0.00787897
0.00806001
0.00820816
0.00832847
0.00842521
0.00850159
0.00855925
0.00859798
0.00861307
0.0700952
0.043073
0.0299856
0.0231637
0.0191286
0.0164284
0.0144247
0.0127988
0.0113788
0.0100336
0.00864831
0.00708747
0.00517645
0.00273269
0.00027551
0.000139137
0.00123919
0.00206522
0.00263313
0.00306403
0.00337314
0.00355408
0.00355802
0.00340405
0.00304695
0.00246092
0.00165656
0.000723166
0.000116819
0.000192601
0.00180491
0.0032302
0.00436298
0.00532537
0.00616494
0.00689749
0.00753557
0.0080885
0.00856517
0.00897395
0.00932238
0.00961713
0.0098641
0.0100689
0.0102367
0.0103719
0.0104778
0.0105559
0.0106057
0.0106238
0.0745355
0.0506712
0.0369259
0.028892
0.0238317
0.0203457
0.0177297
0.0156052
0.0137457
0.0119936
0.0102028
0.00822145
0.00587369
0.00300985
0.00029178
0.000146833
0.00134972
0.00230596
0.00296031
0.00344359
0.00378597
0.00398244
0.0039905
0.00381116
0.00339972
0.00273557
0.00181485
0.000729899
0.000122626
0.000200386
0.00190026
0.00350537
0.00482754
0.00596658
0.00696725
0.00785032
0.00862478
0.0093011
0.0098887
0.0103966
0.0108332
0.0112058
0.011521
0.0117848
0.0120025
0.0121784
0.0123156
0.0124156
0.0124775
0.0124992
0.0774918
0.0566099
0.0429828
0.034219
0.0283489
0.0241601
0.020958
0.0183349
0.0160322
0.0138623
0.0116598
0.00925993
0.00649218
0.00324841
0.00030602
0.000153239
0.00143317
0.00249587
0.00322917
0.00376633
0.00414765
0.00436803
0.00439779
0.00420892
0.00376984
0.00304783
0.00203462
0.000817326
0.000143133
0.000205481
0.00194537
0.00368992
0.00517911
0.00648391
0.0076413
0.0086677
0.00957561
0.0103727
0.0110695
0.0116756
0.0122
0.0126508
0.0130349
0.0133587
0.0136273
0.013845
0.0140147
0.0141376
0.014213
0.0142389
0.0795615
0.0612247
0.0481179
0.0390072
0.0325525
0.0277753
0.0240414
0.0209439
0.0182075
0.0156249
0.0130162
0.01021
0.00704592
0.00345569
0.000318819
0.000158626
0.00149266
0.00264271
0.00344768
0.00404196
0.00447098
0.00472932
0.00478917
0.00461084
0.00416398
0.00340792
0.00232755
0.000995372
0.000169716
0.00020926
0.00194521
0.0038005
0.00543632
0.0068965
0.00820315
0.00936853
0.0104033
0.0113167
0.0121188
0.0128202
0.0134305
0.0139581
0.0144105
0.0147938
0.0151134
0.0153731
0.0155758
0.0157223
0.015812
0.0158427
0.0810661
0.0648208
0.0523996
0.0432079
0.0363672
0.0311236
0.0269281
0.0233963
0.0202503
0.0172725
0.014274
0.0110813
0.00754681
0.00363981
0.000330525
0.000163247
0.00153133
0.0027509
0.00362148
0.00427764
0.00476408
0.00507254
0.00517322
0.00502217
0.00458339
0.00381016
0.00267725
0.00123991
0.000193553
0.000211705
0.00190905
0.00385358
0.0056179
0.00722445
0.00867164
0.00996863
0.0111227
0.0121457
0.0130476
0.0138396
0.014532
0.0151337
0.0156521
0.0160935
0.016463
0.0167643
0.0169997
0.0171698
0.0172741
0.0173104
0.0821904
0.0676392
0.0559358
0.04683
0.0397608
0.0341648
0.0295837
0.0256678
0.0221475
0.0188026
0.01544
0.011887
0.00800867
0.00380956
0.000341502
0.000166911
0.0015537
0.00282351
0.00375536
0.0044796
0.00503325
0.00540243
0.00555403
0.00544332
0.00502465
0.00424523
0.00306364
0.00151462
0.000214095
0.000212816
0.00185325
0.00386479
0.00574685
0.00748659
0.00906609
0.0104847
0.0117493
0.0128719
0.0138658
0.0147419
0.0155111
0.0161825
0.0167636
0.0172605
0.0176781
0.0180195
0.0182869
0.0184804
0.0185994
0.018641
0.0830473
0.0698612
0.0588396
0.0499132
0.0427319
0.0368821
0.0319898
0.0277452
0.023894
0.020219
0.0165264
0.0126445
0.00844885
0.00397528
0.00035221
0.000170339
0.00156319
0.00286236
0.00385541
0.00465553
0.00528524
0.00572339
0.00593443
0.00587265
0.005484
0.00470706
0.003475
0.00180353
0.000233031
0.000212704
0.00178428
0.00384914
0.00584341
0.00770737
0.00940749
0.0109341
0.0122961
0.013507
0.0145827
0.0155345
0.0163735
0.017109
0.0177483
0.0182971
0.0187599
0.0191395
0.0194374
0.0196537
0.0197871
0.0198336
0.0837092
0.0716207
0.0612134
0.0525103
0.0452978
0.0392751
0.0341408
0.0296248
0.0254916
0.021531
0.0175503
0.0133773
0.00889161
0.0041526
0.000363164
0.000172881
0.00154879
0.00287081
0.00393171
0.00481759
0.00552941
0.00604076
0.00631605
0.00630913
0.00595967
0.00519508
0.00390988
0.00208672
0.000252408
0.000211968
0.00170599
0.00382432
0.00593353
0.00791578
0.00971802
0.0113343
0.0127767
0.014062
0.0152068
0.0162239
0.0171244
0.017917
0.0186088
0.019205
0.0197095
0.0201245
0.0204512
0.0206892
0.0208358
0.0208871
0.0842245
0.0730162
0.0631445
0.0546764
0.0474859
0.0413544
0.0360399
0.0313092
0.0269467
0.0227515
0.0185333
0.0141169
0.00937364
0.00436523
0.000375123
0.00017644
0.00150507
0.00286342
0.00400924
0.00498642
0.00577989
0.00636221
0.00670137
0.00675271
0.00645248
0.00571275
0.00438315
0.00237935
0.000274597
0.000213055
0.00162256
0.0038224
0.00605746
0.00814242
0.0100224
0.0117022
0.0132031
0.0145449
0.0157448
0.0168156
0.0177678
0.0186097
0.0193474
0.0199856
0.0205274
0.0209747
0.021328
0.0215854
0.0217444
0.0218003
0.0846264
0.0741204
0.0647036
0.0564627
0.0493266
0.0431359
0.0376957
0.0328049
0.0282679
0.0238949
0.0195
0.0149038
0.009958
0.00468109
0.000388831
0.000180306
0.00145138
0.00288677
0.00413238
0.00519412
0.00605673
0.00669827
0.00709429
0.00720318
0.00696213
0.0062685
0.00492603
0.00272991
0.000302538
0.000233177
0.00156809
0.00391655
0.00627658
0.00842533
0.0103417
0.0120527
0.0135854
0.0149631
0.0162024
0.017314
0.0183073
0.0191895
0.0199659
0.02064
0.0212145
0.0216903
0.0220668
0.0223417
0.0225117
0.0225719
0.084938
0.0749861
0.0659467
0.0579131
0.050849
0.0446368
0.0391179
0.0341187
0.0294625
0.0249729
0.0204721
0.015781
0.0107338
0.00524613
0.000407729
0.000244158
0.0015166
0.00305835
0.00437444
0.00548401
0.00638473
0.0070637
0.00749887
0.00765971
0.00748619
0.00687041
0.00559578
0.00325915
0.000354321
0.000329703
0.00175303
0.00429989
0.00668642
0.0088014
0.0106924
0.0123939
0.013931
0.0153223
0.0165838
0.0177224
0.0187454
0.0196585
0.0204655
0.0211692
0.021771
0.0222709
0.0226671
0.022957
0.0231369
0.0232008
0.0851753
0.0756519
0.0669165
0.0590634
0.0520783
0.0458726
0.0403152
0.0352554
0.0305343
0.0259906
0.0214619
0.0167891
0.011841
0.00659637
0.00158018
0.00141114
0.00234123
0.00359383
0.00482855
0.00590203
0.00678771
0.00746885
0.00792317
0.00811781
0.00801777
0.00751365
0.00645862
0.00466407
0.00226357
0.00222615
0.00338427
0.00529571
0.00733904
0.00928262
0.0110796
0.0127294
0.0142416
0.0156256
0.016891
0.0180428
0.019084
0.0200181
0.0208475
0.0215739
0.0221974
0.0227163
0.0231285
0.023431
0.023619
0.0236862
0.0853496
0.0761449
0.0676441
0.0599406
0.0530338
0.0468549
0.0412931
0.0362158
0.0314805
0.0269422
0.0224585
0.0179012
0.0131907
0.0083965
0.00391369
0.00316809
0.00367482
0.00454898
0.00553852
0.00647292
0.00727892
0.00792039
0.00836603
0.00858226
0.00853811
0.00815883
0.00734661
0.00604653
0.00446535
0.00430325
0.00502004
0.00644394
0.0081177
0.00982994
0.0114862
0.0130511
0.0145136
0.0158708
0.0171245
0.0182763
0.019324
0.0202692
0.0211129
0.0218549
0.0224936
0.0230265
0.0234511
0.0237633
0.0239578
0.0240276
0.0854682
0.0764833
0.0681507
0.0605632
0.0537284
0.0475904
0.0420525
0.0369957
0.0322917
0.027811
0.0234323
0.0190584
0.0146529
0.0103297
0.00651117
0.00528554
0.00526622
0.00575587
0.00644634
0.00717745
0.00785277
0.0084155
0.00882449
0.00904351
0.00903558
0.0087726
0.0081766
0.00726976
0.00627286
0.00606945
0.00651622
0.0075645
0.00891481
0.0103913
0.0118873
0.0133463
0.0147403
0.0160548
0.0172828
0.0184209
0.0194639
0.0204109
0.0212606
0.0220111
0.0226587
0.0232008
0.0236337
0.0239528
0.024152
0.0242239
0.0855354
0.0766777
0.0684488
0.0609416
0.0541685
0.0480806
0.0425897
0.0375861
0.0329521
0.0285721
0.0243432
0.0201932
0.0161145
0.0122355
0.00894914
0.00742818
0.00696809
0.00707736
0.00747007
0.0079733
0.00848623
0.00894077
0.00928784
0.00948851
0.00950713
0.00932755
0.00890872
0.00829151
0.00766302
0.00748241
0.00778716
0.00856775
0.00965814
0.0109209
0.0122563
0.0136001
0.0149129
0.0161707
0.0173622
0.0184766
0.0195055
0.0204453
0.0212928
0.0220444
0.0226951
0.0232413
0.0236785
0.0240014
0.0242036
0.0242769
0.085553
0.0767324
0.0685426
0.0610783
0.0543535
0.0483212
0.0428962
0.0379733
0.0334418
0.0291961
0.0251475
0.0212409
0.0174835
0.013997
0.0110985
0.00944465
0.00861604
0.00841916
0.00853168
0.00880862
0.00914733
0.00947702
0.00974478
0.0099097
0.00993854
0.00981252
0.00952882
0.0091145
0.0087172
0.00858538
0.0088161
0.00941278
0.0103044
0.0113843
0.0125698
0.0137962
0.0150207
0.016215
0.0173607
0.018442
0.0194484
0.0203729
0.0212105
0.0219561
0.022604
0.0231492
0.0235865
0.0239103
0.0241134
0.0241874
0.0855203
0.0766456
0.0684292
0.060969
0.0542773
0.0483036
0.0429599
0.0381407
0.0337382
0.0296524
0.0258035
0.0221461
0.0186911
0.0155402
0.0129262
0.0112107
0.0101592
0.00970092
0.0095692
0.00963436
0.00980113
0.0100004
0.0101787
0.0102946
0.0103169
0.0102264
0.0100305
0.00975621
0.00950705
0.00942713
0.00961537
0.0100917
0.0108309
0.0117584
0.0128066
0.0139211
0.0150565
0.016183
0.0172755
0.0183162
0.0192923
0.0201943
0.0210147
0.0217475
0.0223867
0.0229259
0.0233594
0.023681
0.0238831
0.0239572
0.0854344
0.0764093
0.0680975
0.0606009
0.0539261
0.0480134
0.0427656
0.0380708
0.0338183
0.0299117
0.0262744
0.022864
0.0196881
0.0168229
0.0144281
0.0127041
0.011522
0.0108628
0.0105277
0.0104056
0.0104138
0.010486
0.0105713
0.0106299
0.0106319
0.0105604
0.0104164
0.0102362
0.0100825
0.0100452
0.0102089
0.0106052
0.0112269
0.0120267
0.0129553
0.0139655
0.0150147
0.0160693
0.0171036
0.0180978
0.0190369
0.0199095
0.0207066
0.0214206
0.022045
0.0225737
0.0229996
0.023316
0.0235152
0.0235885
0.08529
0.0760095
0.0675294
0.0599552
0.053282
0.0474328
0.0422945
0.0377432
0.0336615
0.0299481
0.0265293
0.0233605
0.0204418
0.0178239
0.0156106
0.0139148
0.0126639
0.011862
0.0113667
0.0110883
0.0109556
0.0109101
0.0109047
0.0109021
0.0108745
0.0108057
0.0106952
0.0105682
0.0104771
0.0104715
0.0106203
0.0109574
0.0114871
0.0121831
0.0130088
0.0139232
0.0148874
0.0158692
0.0168421
0.0177852
0.0186819
0.0195194
0.0202873
0.0209772
0.021582
0.0220949
0.0225092
0.0228174
0.0230119
0.0230837
0.0850786
0.075425
0.0666986
0.0590058
0.0523216
0.0465418
0.0415282
0.0371387
0.0332446
0.0297395
0.0265437
0.0236121
0.0209321
0.0185341
0.0164823
0.0148403
0.0135645
0.0126699
0.0120555
0.0116522
0.0114006
0.0112512
0.0111618
0.0110985
0.0110358
0.0109586
0.0108641
0.0107703
0.0107115
0.0107272
0.0108643
0.011158
0.0116165
0.0122266
0.0129612
0.013787
0.0146699
0.0155794
0.0164891
0.0173776
0.0182274
0.0190247
0.0197584
0.0204192
0.0209999
0.0214927
0.0218911
0.0221883
0.0223761
0.0224458
0.0847883
0.0746262
0.0655694
0.0577194
0.0510173
0.045318
0.0404483
0.0362414
0.0325529
0.0292675
0.026301
0.0236004
0.0211469
0.0189525
0.0170517
0.0154825
0.0142146
0.0132688
0.0125728
0.012075
0.0117282
0.0114909
0.0113271
0.0112069
0.0111073
0.0110135
0.0109223
0.0108452
0.0108064
0.010835
0.0109568
0.0112141
0.0116156
0.0121533
0.012808
0.0135531
0.0143589
0.0151974
0.016043
0.0168743
0.0176736
0.0184265
0.0191214
0.0197488
0.0203009
0.0207699
0.021149
0.0214318
0.0216113
0.021678
0.0844023
0.0735723
0.0640958
0.0560557
0.049338
0.043739
0.0390384
0.0350379
0.0315741
0.0285213
0.0257888
0.0233185
0.0210824
0.0190801
0.0173288
0.0158459
0.0146118
0.0136488
0.012904
0.0123405
0.0119215
0.0116139
0.0113875
0.0112166
0.0110811
0.0109675
0.0108713
0.0107992
0.0107685
0.0108028
0.0109128
0.0111365
0.0114885
0.0119642
0.0125482
0.0132194
0.0139524
0.0147216
0.0155029
0.0162753
0.0170212
0.0177261
0.0183782
0.0189683
0.0194876
0.0199292
0.0202863
0.0205523
0.0207209
0.020784
0.0838969
0.072209
0.0622195
0.0539675
0.0472514
0.0417842
0.0372857
0.0335195
0.0303016
0.0274949
0.0250028
0.0227626
0.02074
0.0189236
0.0173203
0.0159381
0.0147592
0.0138054
0.0130402
0.0124369
0.0119682
0.0116079
0.0113315
0.0111182
0.0109504
0.0108161
0.0107104
0.0106364
0.0106068
0.0106395
0.010739
0.0109331
0.0112405
0.0116612
0.0121818
0.012785
0.0134492
0.0141511
0.0148683
0.0155806
0.0162709
0.0169248
0.0175308
0.0180797
0.0185629
0.0189737
0.0193059
0.0195532
0.0197094
0.0197674
0.0832386
0.0704628
0.0598684
0.0514025
0.044726
0.0394377
0.0351831
0.0316839
0.0287346
0.0261884
0.0239439
0.0219351
0.0201236
0.0184926
0.0170377
0.015761
0.0146609
0.0137395
0.0129774
0.0123575
0.0118593
0.0114632
0.0111503
0.0109036
0.0107088
0.0105555
0.0104385
0.0103591
0.0103255
0.010352
0.0104418
0.010609
0.010875
0.0112464
0.0117096
0.0122499
0.0128488
0.0134854
0.014139
0.0147904
0.0154233
0.0160238
0.0165811
0.0170855
0.0175295
0.0179065
0.0182111
0.0184375
0.01858
0.0186328
0.082379
0.0682348
0.0569553
0.0483059
0.0417357
0.0366917
0.0327325
0.0295367
0.0268799
0.0246082
0.0226182
0.0208428
0.0192417
0.0177946
0.0164947
0.0153337
0.0143205
0.0134495
0.0127117
0.012095
0.0115864
0.0111714
0.0108356
0.0105659
0.010351
0.010182
0.0100542
0.00996764
0.0099277
0.00994441
0.0100264
0.0101687
0.0103982
0.0107224
0.0111326
0.0116142
0.0121509
0.0127242
0.0133147
0.0139049
0.014479
0.0150242
0.0155302
0.0159876
0.0163896
0.0167304
0.0170049
0.0172086
0.0173365
0.0173835
0.0812456
0.0653915
0.0533783
0.0446267
0.0382662
0.0335514
0.0299472
0.0270932
0.0247518
0.0227673
0.0210374
0.0194968
0.0181053
0.0168417
0.0156949
0.0146623
0.0137442
0.0129393
0.0122429
0.0116481
0.0111462
0.0107275
0.0103819
0.0100997
0.0098722
0.0096923
0.00955585
0.00946246
0.00941565
0.00942242
0.00949192
0.00961509
0.0098113
0.0100911
0.0104518
0.0108781
0.0113555
0.011867
0.0123953
0.0129238
0.0134382
0.0139268
0.0143792
0.0147874
0.0151452
0.0154476
0.0156902
0.0158692
0.0159809
0.0160213
0.079726
0.0617528
0.0490267
0.0403284
0.034324
0.030041
0.0268552
0.0243796
0.0223733
0.0206851
0.0192181
0.0179119
0.0167281
0.0156463
0.0146569
0.0137548
0.0129405
0.012214
0.0115735
0.0110157
0.0105358
0.0101277
0.00978474
0.00950036
0.0092684
0.00908333
0.00894178
0.00884321
0.00879005
0.00878754
0.00884304
0.00895034
0.00911672
0.00935365
0.00966771
0.0100416
0.0104619
0.0109132
0.0113798
0.0118465
0.0123007
0.0127311
0.0131283
0.0134856
0.0137975
0.0140598
0.0142689
0.0144218
0.014516
0.014549
0.077636
0.0570795
0.0437957
0.0354069
0.0299476
0.0262085
0.0235016
0.0214342
0.0197755
0.018387
0.0171813
0.0161062
0.0151254
0.0142243
0.013391
0.012622
0.0119176
0.0112788
0.010706
0.0101983
0.00975364
0.00936902
0.00904055
0.00876417
0.00853607
0.00835228
0.00821009
0.00810914
0.0080512
0.00804024
0.00808158
0.00817702
0.00831374
0.00851264
0.00878051
0.00910401
0.00946871
0.00986117
0.0102667
0.0106721
0.0110649
0.0114357
0.0117766
0.0120819
0.0123468
0.012568
0.0127425
0.0128683
0.0129438
0.0129685
0.0746556
0.0510698
0.0376216
0.0299171
0.0252199
0.0221311
0.0199495
0.0183068
0.0169973
0.0159041
0.0149517
0.0140994
0.0133167
0.0125897
0.0119099
0.0112744
0.0106837
0.0101395
0.00964355
0.00919669
0.00879896
0.00844944
0.00814647
0.00788798
0.00767209
0.00749643
0.00735877
0.00725904
0.00719872
0.00718093
0.00720994
0.00728987
0.00740437
0.00756781
0.00779033
0.0080648
0.00837529
0.00870933
0.00905368
0.00939653
0.00972744
0.0100381
0.0103222
0.0105748
0.0107925
0.0109723
0.011112
0.0112102
0.0112664
0.0112819
0.0701888
0.0433926
0.0305491
0.0240045
0.0202781
0.0179156
0.0162787
0.0150576
0.0140841
0.0132711
0.0125591
0.0119156
0.0113192
0.0107583
0.0102268
0.00972286
0.00924726
0.00880216
0.00838996
0.00801268
0.0076717
0.00736758
0.00710024
0.00686904
0.00667358
0.00651311
0.00638558
0.00629128
0.00623157
0.00620902
0.00622719
0.00629057
0.00638639
0.00651616
0.00669321
0.00692039
0.007177
0.00745243
0.00773532
0.00801541
0.00828402
0.00853445
0.00876169
0.00896215
0.00913305
0.00927231
0.00937797
0.00944917
0.00948583
0.00949146
0.0630655
0.033837
0.0228368
0.017933
0.0153137
0.0136937
0.0125814
0.0117522
0.0110884
0.0105284
0.0100333
0.00958009
0.00915431
0.00874774
0.00835641
0.00797931
0.0076176
0.00727351
0.00694973
0.00664875
0.00637263
0.00612283
0.00590025
0.00570515
0.00553804
0.00539977
0.00528817
0.00520382
0.00514812
0.00512322
0.00513202
0.005178
0.00525833
0.00535514
0.00548795
0.00566643
0.00586881
0.00608514
0.00630597
0.00652296
0.00672931
0.00692001
0.00709144
0.00724121
0.00736724
0.00746812
0.00754189
0.00758807
0.00760615
0.00760143
0.0510213
0.0227364
0.015069
0.0120812
0.010556
0.00960937
0.00895814
0.00846429
0.00806327
0.0077194
0.00741045
0.00712263
0.00684724
0.00657932
0.00631658
0.0060587
0.00580688
0.00556315
0.00532997
0.00510977
0.00490474
0.00471657
0.00454667
0.00439563
0.00426428
0.00415486
0.00406485
0.00399509
0.00394701
0.00392239
0.00392344
0.00395289
0.00401223
0.00408085
0.00417128
0.00429973
0.0044465
0.00460252
0.00476055
0.00491445
0.00505939
0.00519208
0.00531018
0.00541238
0.00549706
0.00556355
0.00560936
0.00563452
0.00563661
0.00562178
0.0310756
0.0117185
0.0081441
0.00688133
0.00623525
0.00581594
0.00551227
0.0052743
0.0050756
0.00490089
0.00474021
0.00458699
0.00443695
0.00428764
0.00413797
0.00398795
0.00383852
0.00369115
0.00354767
0.00340988
0.00327959
0.00315817
0.00304704
0.00294662
0.00285744
0.00278261
0.00271927
0.00266852
0.00263174
0.00261026
0.00260549
0.00261932
0.00265465
0.00269585
0.0027461
0.00282411
0.00291365
0.00300844
0.00310381
0.00319607
0.00328235
0.00336092
0.00343035
0.00349034
0.00353923
0.00357736
0.00360105
0.00361161
0.00360293
0.00358005
0.00855367
0.00370691
0.00297339
0.00273103
0.00259405
0.00248473
0.00239448
0.00231916
0.00225341
0.00219368
0.00213721
0.00208196
0.00202647
0.00196994
0.00191197
0.00185258
0.00179217
0.00173134
0.00167099
0.00161193
0.00155509
0.0015011
0.00145092
0.00140449
0.00136152
0.00132461
0.00129158
0.00126371
0.00124202
0.0012272
0.00121979
0.00122061
0.00123122
0.00124635
0.00126216
0.0012922
0.00132645
0.00136327
0.00140068
0.00143735
0.00147213
0.00150439
0.00153313
0.00155876
0.00157932
0.00159628
0.00160485
0.00160842
0.00159721
0.00157343
0.000435738
0.000315522
0.000271254
0.000250479
0.000238466
0.000229988
0.000223434
0.00021813
0.00021364
0.000209723
0.00020618
0.000202857
0.000199625
0.000196393
0.000193097
0.000189694
0.000186169
0.000182526
0.000178786
0.000174982
0.000171149
0.000167335
0.000163578
0.000159931
0.000156372
0.000153098
0.000150056
0.000147256
0.000144735
0.000142542
0.000140739
0.00013936
0.000138544
0.000138318
0.000138384
0.000139009
0.000140226
0.000141927
0.00014399
0.000146282
0.00014869
0.000151092
0.000153404
0.000155528
0.000157437
0.000158994
0.000160241
0.000160892
0.000161003
0.000160043
)
;

boundaryField
{
    floor
    {
        type            nutkWallFunction;
        Cmu             0.09;
        kappa           0.41;
        E               9.8;
        value           nonuniform List<scalar> 
50
(
5.14101e-05
3.53559e-05
2.8998e-05
2.56854e-05
2.34646e-05
2.1609e-05
1.99072e-05
1.82585e-05
1.66061e-05
1.49104e-05
1.31742e-05
1.1304e-05
8.85188e-06
4.8329e-06
0
0
0
0
9.62856e-07
2.22422e-06
3.08886e-06
3.81452e-06
4.16448e-06
4.19821e-06
3.99141e-06
3.33894e-06
2.09509e-06
0
0
0
2.46121e-06
5.50191e-06
7.74408e-06
9.47229e-06
1.08179e-05
1.18489e-05
1.26566e-05
1.32917e-05
1.37933e-05
1.41873e-05
1.44959e-05
1.47536e-05
1.50105e-05
1.52458e-05
1.54471e-05
1.56275e-05
1.57949e-05
1.59821e-05
1.61836e-05
1.65237e-05
)
;
    }
    ceiling
    {
        type            nutkWallFunction;
        Cmu             0.09;
        kappa           0.41;
        E               9.8;
        value           nonuniform List<scalar> 
50
(
5.14098e-05
3.5464e-05
2.94043e-05
2.65165e-05
2.48323e-05
2.3637e-05
2.27092e-05
2.19556e-05
2.13159e-05
2.07562e-05
2.02489e-05
1.9772e-05
1.93071e-05
1.88409e-05
1.83644e-05
1.78714e-05
1.73593e-05
1.68287e-05
1.62824e-05
1.57251e-05
1.51621e-05
1.46001e-05
1.4045e-05
1.35046e-05
1.29758e-05
1.2488e-05
1.20337e-05
1.16146e-05
1.12368e-05
1.09077e-05
1.0637e-05
1.04299e-05
1.03087e-05
1.0275e-05
1.02856e-05
1.03822e-05
1.05676e-05
1.0825e-05
1.11361e-05
1.14804e-05
1.18412e-05
1.21999e-05
1.25444e-05
1.28601e-05
1.3143e-05
1.33734e-05
1.35574e-05
1.36528e-05
1.3668e-05
1.35244e-05
)
;
    }
    inlet
    {
        type            calculated;
        value           uniform 0.09;
    }
    outlet
    {
        type            calculated;
        value           nonuniform List<scalar> 
40
(
0.000180491
0.0019382
0.00422009
0.00647224
0.00861307
0.0106238
0.0124992
0.0142389
0.0158427
0.0173104
0.018641
0.0198336
0.0208871
0.0218003
0.0225719
0.0232008
0.0236862
0.0240276
0.0242239
0.0242769
0.0241874
0.0239572
0.0235885
0.0230837
0.0224458
0.021678
0.020784
0.0197674
0.0186328
0.0173835
0.0160213
0.014549
0.0129685
0.0112819
0.00949146
0.00760143
0.00562178
0.00358005
0.00157343
0.000160043
)
;
    }
    fixedWalls
    {
        type            empty;
    }
    baffleFacesThermoBaffle1D_master
    {
        type            nutkWallFunction;
        Cmu             0.09;
        kappa           0.41;
        E               9.8;
        value           nonuniform List<scalar> 
16
(
0
0
3.85586e-06
6.52911e-06
8.48421e-06
9.96357e-06
1.11543e-05
1.21376e-05
1.29594e-05
1.36608e-05
1.42159e-05
1.47325e-05
1.51171e-05
1.56516e-05
1.62341e-05
2.54374e-05
)
;
    }
    baffleFacesThermoBaffle1D_slave
    {
        type            nutkWallFunction;
        Cmu             0.09;
        kappa           0.41;
        E               9.8;
        value           nonuniform List<scalar> 
16
(
4.10096e-06
1.36243e-05
1.93824e-05
2.35506e-05
2.69429e-05
2.96608e-05
3.19241e-05
3.38895e-05
3.56444e-05
3.72404e-05
3.87296e-05
4.01757e-05
4.16483e-05
4.32496e-05
4.50753e-05
4.75945e-05
)
;
    }
    baffleFacesThermoBaffle3D_master
    {
        type            nutkWallFunction;
        Cmu             0.09;
        kappa           0.41;
        E               9.8;
        value           nonuniform List<scalar> 
16
(
7.41109e-07
5.11083e-06
9.89315e-06
1.30601e-05
1.5253e-05
1.68404e-05
1.80325e-05
1.88201e-05
1.94122e-05
1.97952e-05
1.9973e-05
1.99621e-05
1.98603e-05
2.0035e-05
2.30658e-05
3.68239e-05
)
;
    }
    baffleFacesThermoBaffle3D_slave
    {
        type            nutkWallFunction;
        Cmu             0.09;
        kappa           0.41;
        E               9.8;
        value           nonuniform List<scalar> 
16
(
0
1.52806e-06
3.46147e-06
3.99153e-06
4.33716e-06
4.45824e-06
5.46581e-06
8.99266e-06
1.33923e-05
1.71249e-05
2.02361e-05
2.30493e-05
2.58835e-05
2.90755e-05
3.30352e-05
4.02041e-05
)
;
    }
}


// ************************************************************************* //
