/*--------------------------------*- C++ -*----------------------------------*\
| =========                 |                                                 |
| \\      /  F ield         | OpenFOAM: The Open Source CFD Toolbox           |
|  \\    /   O peration     | Version:  v1906                                 |
|   \\  /    A nd           | Web:      www.OpenFOAM.com                      |
|    \\/     M anipulation  |                                                 |
\*---------------------------------------------------------------------------*/
FoamFile
{
    version     2.0;
    format      ascii;
    class       volScalarField;
    location    "1000";
    object      T;
}
// * * * * * * * * * * * * * * * * * * * * * * * * * * * * * * * * * * * * * //

dimensions      [0 0 0 1 0 0 0];


internalField   nonuniform List<scalar> 
2000
(
300
300.002
300.006
300.013
300.024
300.039
300.062
300.097
300.156
300.262
300.458
300.806
301.409
302.563
305.69
306.476
304.372
304.306
304.361
304.459
304.59
304.756
304.974
305.25
305.589
306.002
306.646
306.927
309.953
307.122
302.166
302.298
302.078
301.953
301.824
301.714
301.613
301.523
301.443
301.371
301.307
301.249
301.198
301.153
301.113
301.078
301.049
301.025
301.007
300.994
300
300.003
300.009
300.018
300.03
300.047
300.072
300.11
300.169
300.267
300.432
300.703
301.14
301.893
303.646
306.102
304.371
304.247
304.245
304.297
304.397
304.552
304.779
305.095
305.521
306.083
306.813
307.478
310.624
306.926
302.74
302.466
302.239
302.064
301.91
301.775
301.657
301.554
301.463
301.383
301.313
301.251
301.196
301.149
301.107
301.072
301.043
301.019
301.002
300.991
300
300.004
300.011
300.02
300.034
300.052
300.078
300.117
300.175
300.265
300.408
300.627
300.962
301.493
302.602
305.712
304.359
304.178
304.146
304.169
304.247
304.387
304.607
304.932
305.401
306.067
306.989
308.145
311.234
306.745
303.189
302.652
302.36
302.145
301.966
301.814
301.684
301.571
301.473
301.388
301.314
301.249
301.193
301.144
301.102
301.067
301.037
301.014
300.997
300.988
300.001
300.005
300.012
300.022
300.036
300.055
300.082
300.12
300.176
300.258
300.382
300.564
300.829
301.232
302.104
305.434
304.328
304.116
304.053
304.05
304.103
304.22
304.421
304.737
305.218
305.952
307.064
308.72
311.947
306.6
303.481
302.816
302.464
302.212
302.011
301.843
301.702
301.581
301.478
301.389
301.313
301.246
301.189
301.139
301.097
301.061
301.032
301.009
300.993
300.985
300.001
300.006
300.013
300.023
300.038
300.057
300.084
300.121
300.173
300.249
300.357
300.51
300.726
301.053
301.817
305.233
304.281
304.051
303.956
303.929
303.955
304.044
304.216
304.503
304.965
305.719
306.98
309.132
312.743
306.54
303.693
302.956
302.555
302.27
302.047
301.865
301.714
301.587
301.48
301.388
301.309
301.241
301.183
301.133
301.091
301.055
301.026
301.004
300.989
300.981
300.001
300.006
300.014
300.025
300.039
300.058
300.084
300.12
300.169
300.238
300.333
300.464
300.645
300.924
301.626
305.084
304.224
303.978
303.856
303.801
303.799
303.857
303.992
304.236
304.648
305.356
306.653
309.24
314.08
306.541
303.863
303.076
302.632
302.318
302.075
301.88
301.721
301.588
301.477
301.383
301.303
301.235
301.176
301.126
301.084
301.049
301.02
300.999
300.984
300.976
300.002
300.007
300.015
300.025
300.04
300.059
300.084
300.118
300.164
300.226
300.31
300.424
300.581
300.826
301.486
304.963
304.159
303.897
303.751
303.668
303.638
303.663
303.757
303.947
304.282
304.879
306.043
308.781
315.864
306.571
304.007
303.178
302.696
302.354
302.094
301.888
301.721
301.585
301.471
301.376
301.295
301.227
301.168
301.119
301.077
301.042
301.014
300.992
300.978
300.971
300.002
300.008
300.015
300.026
300.04
300.059
300.083
300.115
300.158
300.214
300.289
300.389
300.528
300.751
301.378
304.86
304.088
303.809
303.639
303.529
303.471
303.464
303.518
303.651
303.898
304.339
305.19
307.227
313.534
306.641
304.135
303.263
302.743
302.377
302.101
301.886
301.715
301.576
301.461
301.366
301.285
301.217
301.159
301.11
301.068
301.034
301.007
300.986
300.972
300.965
300.002
300.008
300.016
300.027
300.04
300.058
300.082
300.112
300.151
300.203
300.27
300.359
300.484
300.689
301.291
304.771
304.013
303.714
303.52
303.385
303.3
303.265
303.282
303.362
303.525
303.816
304.332
305.37
308.255
306.731
304.25
303.328
302.772
302.383
302.096
301.875
301.702
301.562
301.447
301.352
301.273
301.205
301.148
301.1
301.059
301.026
300.999
300.979
300.965
300.958
300.002
300.008
300.016
300.027
300.041
300.058
300.08
300.109
300.145
300.192
300.253
300.333
300.446
300.638
301.219
304.684
303.933
303.611
303.393
303.235
303.127
303.067
303.053
303.089
303.185
303.363
303.668
304.256
306.091
306.858
304.354
303.37
302.777
302.371
302.076
301.854
301.68
301.542
301.429
301.336
301.258
301.192
301.136
301.089
301.049
301.017
300.991
300.971
300.958
300.951
300.003
300.009
300.017
300.027
300.04
300.057
300.078
300.105
300.139
300.182
300.237
300.31
300.414
300.594
301.157
304.614
303.847
303.497
303.254
303.076
302.95
302.871
302.833
302.837
302.884
302.987
303.175
303.585
305.198
307.026
304.444
303.381
302.753
302.336
302.04
301.821
301.651
301.517
301.407
301.317
301.241
301.177
301.123
301.077
301.039
301.007
300.982
300.963
300.95
300.944
300.003
300.009
300.017
300.027
300.04
300.056
300.076
300.101
300.133
300.172
300.223
300.289
300.385
300.555
301.101
304.527
303.751
303.367
303.1
302.906
302.768
302.677
302.623
302.604
302.619
302.673
302.794
303.105
304.514
307.239
304.501
303.344
302.692
302.275
301.988
301.776
301.614
301.486
301.381
301.294
301.222
301.16
301.108
301.064
301.027
300.997
300.973
300.955
300.942
300.936
300.003
300.009
300.017
300.027
300.04
300.055
300.074
300.098
300.127
300.163
300.209
300.27
300.358
300.518
301.048
304.48
303.64
303.211
302.923
302.72
302.579
302.483
302.422
302.39
302.384
302.407
302.483
302.723
303.97
307.548
304.48
303.233
302.583
302.187
301.918
301.721
301.57
301.45
301.351
301.27
301.201
301.142
301.093
301.051
301.015
300.986
300.963
300.946
300.934
300.928
300.003
300.009
300.017
300.027
300.039
300.054
300.072
300.094
300.121
300.155
300.197
300.253
300.333
300.482
300.995
304.359
303.481
303.007
302.712
302.516
302.382
302.29
302.229
302.191
302.173
302.176
302.219
302.392
303.459
307.739
304.265
303.013
302.42
302.07
301.832
301.657
301.52
301.41
301.319
301.243
301.178
301.123
301.076
301.036
301.003
300.975
300.953
300.936
300.925
300.92
300.003
300.009
300.017
300.027
300.038
300.053
300.07
300.091
300.116
300.147
300.186
300.236
300.309
300.444
300.942
304.4
303.222
302.728
302.459
302.29
302.176
302.098
302.043
302.005
301.982
301.973
301.989
302.094
302.926
307.099
303.668
302.664
302.209
301.931
301.735
301.585
301.465
301.366
301.284
301.214
301.154
301.103
301.059
301.021
300.99
300.963
300.942
300.927
300.916
300.911
300.003
300.009
300.017
300.026
300.038
300.051
300.068
300.087
300.111
300.14
300.176
300.222
300.287
300.403
300.853
303.595
302.677
302.341
302.161
302.046
301.965
301.907
301.864
301.832
301.808
301.793
301.789
301.824
302.222
303.462
302.612
302.232
301.974
301.782
301.631
301.508
301.406
301.32
301.247
301.183
301.129
301.081
301.041
301.006
300.976
300.951
300.932
300.917
300.907
300.902
300.003
300.009
300.017
300.026
300.037
300.05
300.066
300.084
300.107
300.134
300.167
300.209
300.266
300.358
300.573
301.681
301.89
301.886
301.841
301.795
301.754
301.721
301.693
301.67
301.65
301.633
301.619
301.616
301.669
301.94
301.946
301.874
301.756
301.636
301.527
301.431
301.346
301.273
301.208
301.152
301.103
301.06
301.022
300.99
300.962
300.939
300.92
300.907
300.897
300.893
300.003
300.009
300.017
300.026
300.036
300.049
300.064
300.081
300.102
300.128
300.159
300.198
300.25
300.33
300.493
301.023
301.339
301.483
301.538
301.553
301.552
301.544
301.532
301.52
301.506
301.491
301.475
301.463
301.473
301.568
301.62
301.619
301.573
301.503
301.427
301.354
301.287
301.225
301.17
301.12
301.076
301.037
301.003
300.973
300.948
300.926
300.909
300.896
300.887
300.883
300.003
300.009
300.016
300.025
300.035
300.047
300.062
300.078
300.099
300.123
300.152
300.188
300.237
300.309
300.443
300.741
301.003
301.178
301.28
301.336
301.365
301.379
301.383
301.381
301.375
301.365
301.352
301.34
301.342
301.383
301.423
301.439
301.424
301.385
301.335
301.282
301.229
301.178
301.131
301.088
301.049
301.015
300.984
300.957
300.933
300.914
300.898
300.886
300.878
300.874
300.003
300.009
300.016
300.024
300.034
300.046
300.06
300.076
300.095
300.118
300.145
300.18
300.225
300.291
300.401
300.594
300.795
300.957
301.073
301.15
301.198
301.228
301.246
301.254
301.255
301.252
301.244
301.237
301.238
301.259
301.287
301.305
301.303
301.284
301.252
301.213
301.173
301.132
301.093
301.057
301.023
300.992
300.964
300.94
300.919
300.901
300.886
300.875
300.868
300.864
300.003
300.009
300.016
300.024
300.033
300.044
300.058
300.073
300.092
300.113
300.14
300.172
300.215
300.275
300.366
300.503
300.657
300.797
300.91
300.994
301.053
301.095
301.122
301.138
301.147
301.15
301.148
301.146
301.148
301.163
301.183
301.199
301.204
301.196
301.177
301.15
301.12
301.088
301.056
301.025
300.996
300.969
300.945
300.923
300.904
300.888
300.875
300.864
300.858
300.854
300.003
300.008
300.015
300.023
300.032
300.043
300.056
300.071
300.088
300.109
300.134
300.165
300.205
300.259
300.335
300.441
300.561
300.679
300.782
300.865
300.929
300.977
301.011
301.034
301.049
301.058
301.062
301.064
301.069
301.081
301.098
301.113
301.121
301.119
301.109
301.092
301.07
301.045
301.02
300.995
300.97
300.947
300.926
300.907
300.89
300.875
300.863
300.854
300.848
300.845
300.002
300.008
300.015
300.022
300.031
300.042
300.054
300.068
300.085
300.105
300.129
300.158
300.195
300.244
300.309
300.393
300.491
300.59
300.681
300.759
300.823
300.874
300.912
300.941
300.961
300.974
300.983
300.99
300.998
301.01
301.025
301.039
301.049
301.052
301.048
301.038
301.023
301.005
300.985
300.965
300.945
300.925
300.907
300.89
300.875
300.862
300.851
300.843
300.838
300.835
300.002
300.008
300.014
300.022
300.03
300.04
300.052
300.066
300.082
300.101
300.124
300.152
300.186
300.229
300.286
300.356
300.436
300.52
300.6
300.672
300.734
300.785
300.825
300.857
300.881
300.898
300.911
300.922
300.933
300.946
300.96
300.974
300.986
300.992
300.993
300.988
300.979
300.967
300.952
300.936
300.92
300.904
300.888
300.874
300.861
300.849
300.84
300.833
300.828
300.825
300.002
300.007
300.014
300.021
300.029
300.039
300.05
300.064
300.079
300.098
300.119
300.145
300.177
300.216
300.265
300.325
300.392
300.463
300.534
300.599
300.657
300.707
300.749
300.782
300.809
300.829
300.846
300.86
300.873
300.887
300.902
300.917
300.929
300.938
300.943
300.942
300.938
300.93
300.92
300.908
300.895
300.882
300.87
300.858
300.847
300.837
300.829
300.822
300.818
300.816
300.002
300.007
300.013
300.02
300.028
300.038
300.049
300.061
300.076
300.094
300.114
300.139
300.168
300.204
300.247
300.298
300.356
300.417
300.479
300.538
300.592
300.64
300.681
300.715
300.743
300.767
300.786
300.802
300.818
300.833
300.849
300.864
300.878
300.889
300.897
300.9
300.899
300.896
300.889
300.881
300.872
300.862
300.852
300.842
300.833
300.825
300.818
300.812
300.808
300.807
300.002
300.007
300.012
300.019
300.027
300.036
300.047
300.059
300.074
300.09
300.11
300.133
300.16
300.192
300.231
300.275
300.325
300.379
300.433
300.486
300.536
300.581
300.621
300.655
300.685
300.709
300.731
300.749
300.767
300.783
300.8
300.816
300.831
300.844
300.854
300.86
300.863
300.863
300.86
300.855
300.849
300.842
300.834
300.826
300.819
300.812
300.807
300.802
300.799
300.798
300.002
300.006
300.012
300.018
300.026
300.035
300.045
300.057
300.071
300.087
300.105
300.127
300.152
300.181
300.216
300.255
300.299
300.346
300.394
300.442
300.487
300.529
300.568
300.602
300.631
300.657
300.68
300.7
300.719
300.737
300.754
300.772
300.788
300.802
300.814
300.823
300.829
300.832
300.832
300.83
300.827
300.822
300.817
300.811
300.806
300.801
300.796
300.792
300.79
300.789
300.002
300.006
300.011
300.017
300.025
300.033
300.043
300.055
300.068
300.083
300.101
300.121
300.144
300.171
300.202
300.237
300.276
300.317
300.36
300.403
300.445
300.484
300.52
300.553
300.583
300.609
300.633
300.654
300.674
300.693
300.712
300.73
300.747
300.763
300.776
300.788
300.796
300.802
300.805
300.806
300.805
300.803
300.8
300.797
300.793
300.789
300.786
300.783
300.781
300.78
300.002
300.006
300.01
300.016
300.024
300.032
300.042
300.053
300.065
300.08
300.096
300.115
300.137
300.161
300.189
300.221
300.255
300.292
300.331
300.369
300.407
300.444
300.478
300.51
300.539
300.565
300.589
300.611
300.632
300.652
300.672
300.691
300.709
300.726
300.741
300.754
300.765
300.773
300.779
300.783
300.784
300.785
300.784
300.782
300.78
300.778
300.775
300.774
300.772
300.772
300.001
300.005
300.01
300.016
300.022
300.031
300.04
300.05
300.063
300.076
300.092
300.109
300.129
300.152
300.178
300.206
300.237
300.27
300.304
300.339
300.374
300.408
300.44
300.47
300.499
300.525
300.549
300.572
300.593
300.614
300.634
300.653
300.672
300.691
300.707
300.722
300.735
300.745
300.754
300.76
300.764
300.767
300.768
300.768
300.768
300.767
300.766
300.765
300.764
300.764
300.001
300.005
300.009
300.015
300.021
300.029
300.038
300.048
300.06
300.073
300.088
300.104
300.123
300.143
300.167
300.192
300.22
300.25
300.281
300.312
300.344
300.375
300.406
300.434
300.462
300.487
300.511
300.534
300.556
300.577
300.598
300.618
300.638
300.657
300.675
300.692
300.706
300.719
300.729
300.738
300.744
300.749
300.752
300.754
300.755
300.756
300.756
300.756
300.756
300.756
300.001
300.004
300.008
300.014
300.02
300.028
300.036
300.046
300.057
300.069
300.083
300.099
300.116
300.135
300.156
300.18
300.205
300.232
300.26
300.288
300.317
300.346
300.374
300.401
300.428
300.453
300.476
300.499
300.521
300.543
300.564
300.584
300.605
300.625
300.644
300.662
300.678
300.693
300.705
300.716
300.724
300.731
300.737
300.741
300.743
300.745
300.747
300.748
300.748
300.749
300.001
300.004
300.008
300.013
300.019
300.026
300.035
300.044
300.054
300.066
300.079
300.094
300.11
300.127
300.147
300.168
300.191
300.215
300.24
300.266
300.293
300.319
300.346
300.371
300.396
300.42
300.443
300.466
300.488
300.51
300.531
300.552
300.573
300.594
300.614
300.633
300.651
300.667
300.682
300.694
300.705
300.714
300.721
300.727
300.732
300.735
300.738
300.739
300.741
300.742
300.001
300.003
300.007
300.012
300.018
300.025
300.033
300.042
300.052
300.063
300.075
300.088
300.103
300.12
300.137
300.157
300.177
300.199
300.222
300.246
300.27
300.295
300.319
300.343
300.367
300.39
300.412
300.435
300.456
300.478
300.499
300.521
300.542
300.563
300.584
300.605
300.624
300.642
300.658
300.673
300.686
300.697
300.706
300.714
300.72
300.725
300.729
300.732
300.734
300.735
300.001
300.003
300.006
300.011
300.017
300.024
300.031
300.039
300.049
300.059
300.071
300.083
300.097
300.112
300.128
300.146
300.165
300.185
300.205
300.227
300.249
300.272
300.294
300.317
300.339
300.361
300.383
300.404
300.426
300.447
300.468
300.49
300.511
300.533
300.555
300.576
300.597
300.616
300.635
300.651
300.666
300.679
300.691
300.7
300.708
300.714
300.72
300.724
300.727
300.729
300
300.002
300.006
300.01
300.016
300.022
300.029
300.037
300.046
300.056
300.066
300.078
300.091
300.105
300.119
300.135
300.152
300.171
300.189
300.209
300.229
300.25
300.271
300.292
300.312
300.333
300.354
300.375
300.396
300.417
300.438
300.459
300.481
300.503
300.525
300.548
300.569
300.59
300.61
300.629
300.646
300.661
300.674
300.686
300.696
300.704
300.711
300.716
300.72
300.723
300
300.002
300.005
300.009
300.014
300.02
300.027
300.034
300.043
300.052
300.062
300.072
300.084
300.097
300.11
300.125
300.14
300.157
300.174
300.191
300.21
300.228
300.247
300.267
300.286
300.306
300.326
300.346
300.366
300.386
300.407
300.428
300.45
300.472
300.494
300.517
300.54
300.563
300.584
300.605
300.624
300.641
300.657
300.671
300.683
300.693
300.701
300.708
300.713
300.717
300
300.002
300.004
300.008
300.013
300.018
300.024
300.031
300.039
300.047
300.056
300.066
300.077
300.088
300.1
300.113
300.127
300.142
300.157
300.173
300.189
300.206
300.223
300.241
300.258
300.277
300.295
300.314
300.333
300.352
300.372
300.393
300.414
300.436
300.459
300.482
300.506
300.53
300.553
300.576
300.598
300.618
300.636
300.652
300.667
300.679
300.69
300.699
300.706
300.711
300
300.001
300.003
300.006
300.01
300.015
300.021
300.027
300.034
300.041
300.049
300.058
300.067
300.077
300.087
300.098
300.11
300.122
300.135
300.149
300.163
300.177
300.192
300.207
300.223
300.239
300.256
300.273
300.291
300.309
300.328
300.348
300.368
300.39
300.412
300.435
300.459
300.484
300.509
300.534
300.559
300.582
300.604
300.625
300.643
300.659
300.673
300.685
300.694
300.704
)
;

boundaryField
{
    floor
    {
        type            zeroGradient;
    }
    ceiling
    {
        type            zeroGradient;
    }
    inlet
    {
        type            fixedValue;
        value           uniform 300;
    }
    outlet
    {
        type            inletOutlet;
        inletValue      uniform 300;
        value           nonuniform List<scalar> 
40
(
300.993
300.99
300.987
300.983
300.979
300.974
300.969
300.963
300.957
300.95
300.943
300.935
300.927
300.918
300.91
300.901
300.891
300.882
300.872
300.863
300.853
300.843
300.834
300.824
300.815
300.806
300.797
300.788
300.779
300.771
300.763
300.755
300.748
300.741
300.734
300.728
300.722
300.717
300.711
300.704
)
;
    }
    fixedWalls
    {
        type            empty;
    }
    baffleFacesThermoBaffle1D_master
    {
        type            compressible::thermalBaffle1D<hConstSolidThermoPhysics>;
        refValue        nonuniform List<scalar> 
16
(
323.628
318.993
315.973
314.361
313.318
312.595
312.052
311.621
311.266
310.962
310.701
310.455
310.236
309.978
309.743
308.772
)
;
        refGradient     uniform 0;
        valueFraction   nonuniform List<scalar> 
16
(
0.987125
0.987125
0.984644
0.982914
0.981643
0.98068
0.979903
0.979261
0.978724
0.978266
0.977902
0.977562
0.977309
0.976957
0.976574
0.970646
)
;
        value           nonuniform List<scalar> 
16
(
323.407
318.827
315.815
314.209
313.169
312.449
311.91
311.481
311.127
310.825
310.567
310.322
310.106
309.849
309.615
308.623
)
;
        sampleMode      nearestPatchFace;
        sampleRegion    region0;
        samplePatch     baffleFacesThermoBaffle1D_slave;
        coupleGroup     baffleFacesThermoBaffle1D;
        thickness       uniform 0.005;
        qs              uniform 100;
        specie
        {
            molWeight       20;
        }
        equationOfState
        {
            rho             10;
        }
        thermodynamics
        {
            Cp              10;
            Hf              0;
        }
        transport
        {
            kappa           1;
        }
        qrPrevious      uniform 0;
        qr              none;
        qrRelaxation    1;
    }
    baffleFacesThermoBaffle1D_slave
    {
        type            compressible::thermalBaffle1D<hConstSolidThermoPhysics>;
        refValue        nonuniform List<scalar> 
16
(
323.657
319.077
316.065
314.459
313.419
312.699
312.16
311.731
311.377
311.075
310.817
310.572
310.356
310.099
309.865
308.873
)
;
        refGradient     uniform 0;
        valueFraction   nonuniform List<scalar> 
16
(
0.984555
0.978515
0.974807
0.972122
0.969943
0.9682
0.966751
0.965495
0.964375
0.963358
0.962412
0.961493
0.960561
0.959545
0.958394
0.956744
)
;
        value           nonuniform List<scalar> 
16
(
323.38
318.746
315.726
314.114
313.071
312.347
311.805
311.374
311.018
310.714
310.454
310.207
309.989
309.73
309.494
308.526
)
;
        sampleMode      nearestPatchFace;
        sampleRegion    region0;
        samplePatch     baffleFacesThermoBaffle1D_master;
        coupleGroup     baffleFacesThermoBaffle1D;
        qrPrevious      uniform 0;
        qr              none;
        qrRelaxation    1;
    }
    baffleFacesThermoBaffle3D_master
    {
        type            compressible::thermalBaffle;
        refValue        nonuniform List<scalar> 
16
(
372.511
364.673
357.291
353.04
350.497
348.858
347.551
346.306
345.114
344.317
343.915
343.797
343.835
343.44
340.298
330.556
)
;
        refGradient     uniform 0;
        valueFraction   nonuniform List<scalar> 
16
(
0.948899
0.939872
0.929782
0.923044
0.918375
0.915003
0.912459
0.910738
0.909413
0.908552
0.908147
0.908157
0.908365
0.907966
0.901433
0.872478
)
;
        value           nonuniform List<scalar> 
16
(
369.136
361.186
353.736
349.465
346.909
345.261
343.963
342.765
341.637
340.891
340.527
340.439
340.51
340.153
337.025
327.1
)
;
        Tnbr            T;
        qrNbr           none;
        qr              none;
        thermalInertia  false;
        thicknessLayers 0();
        kappaLayers     0();
        kappaMethod     fluidThermo;
        kappa           none;
        alphaAni        none;
        extrudeModel    linearNormal;
        nLayers         50;
        expansionRatio  1;
        columnCells     false;
        linearNormalCoeffs 
        {
            thickness       0.02;
        }

        region          baffle3DRegion;
        active          yes;
        thermoType      
        {
            type            heSolidThermo;
            mixture         pureMixture;
            transport       constIso;
            thermo          hConst;
            equationOfState rhoConst;
            specie          specie;
            energy          sensibleEnthalpy;
        }

        mixture         
        {
            specie
            {
                molWeight       20;
            }
            transport
            {
                kappa           0.01;
            }
            thermodynamics
            {
                Hf              0;
                Cp              15;
            }
            equationOfState
            {
                rho             80;
            }
        }

        radiation       
        {
            radiationModel  opaqueSolid;
            absorptionEmissionModel none;
            scatterModel    none;
            transmissivityModel none;
        }

    }
    baffleFacesThermoBaffle3D_slave
    {
        type            compressible::thermalBaffle;
        refValue        nonuniform List<scalar> 
16
(
377.048
373.464
369.557
368.375
368.004
368.441
367.691
360.849
351.432
345.72
342.188
339.455
337.067
334.643
331.867
328.083
)
;
        refGradient     uniform 0;
        valueFraction   nonuniform List<scalar> 
16
(
0.950415
0.947298
0.94334
0.942244
0.941537
0.9413
0.939205
0.931753
0.922203
0.914096
0.907387
0.901346
0.895295
0.888523
0.880174
0.865388
)
;
        value           nonuniform List<scalar> 
16
(
373.747
370.159
366.254
365.116
364.774
365.251
364.541
357.616
348.071
342.315
338.762
336.008
333.601
331.167
328.399
324.602
)
;
        Tnbr            T;
        qrNbr           none;
        qr              none;
        thermalInertia  false;
        thicknessLayers 0();
        kappaLayers     0();
        kappaMethod     fluidThermo;
        kappa           none;
        alphaAni        none;
    }
}


// ************************************************************************* //
