/*--------------------------------*- C++ -*----------------------------------*\
| =========                 |                                                 |
| \\      /  F ield         | OpenFOAM: The Open Source CFD Toolbox           |
|  \\    /   O peration     | Version:  v1906                                 |
|   \\  /    A nd           | Web:      www.OpenFOAM.com                      |
|    \\/     M anipulation  |                                                 |
\*---------------------------------------------------------------------------*/
FoamFile
{
    version     2.0;
    format      ascii;
    class       volScalarField;
    location    "0.1";
    object      p;
}
// * * * * * * * * * * * * * * * * * * * * * * * * * * * * * * * * * * * * * //

dimensions      [0 2 -2 0 0 0 0];


internalField   nonuniform List<scalar> 
4800
(
-2.39385e-12
0.00124526
0.000826055
0.000637812
0.00150959
0.00114031
0.00132519
0.00190844
0.00184357
0.00182833
0.00242346
0.00265248
0.00262911
0.00290629
0.00354175
0.00391181
0.00410745
0.00457604
0.0051981
0.00591651
1.02801e-05
0.00123673
0.00085744
0.000641125
0.00151053
0.00113592
0.00132929
0.00190941
0.00184649
0.00182407
0.00242296
0.00264987
0.00263352
0.0029038
0.0035486
0.00391277
0.00409954
0.00454014
0.00508484
0.00561494
2.05323e-05
0.00123223
0.000877772
0.000640815
0.00151262
0.00113834
0.00133085
0.00190788
0.00184873
0.00182338
0.00242071
0.00265311
0.00263138
0.00290416
0.00354564
0.00391323
0.00407755
0.00446476
0.00494417
0.00538077
3.56937e-05
0.00122636
0.000904141
0.00064204
0.00151723
0.00113969
0.00133132
0.00190933
0.00185061
0.00182416
0.00241079
0.00266341
0.00262259
0.00291376
0.00351992
0.00390552
0.0040398
0.00436328
0.00480628
0.00519001
5.19872e-05
0.00121895
0.00090973
0.000642268
0.00152195
0.00114348
0.00133048
0.00191037
0.0018498
0.0018284
0.00239835
0.00267618
0.00261068
0.00291547
0.00350992
0.00387635
0.00398989
0.00426179
0.00467191
0.00500487
7.08733e-05
0.00120985
0.000934584
0.000643817
0.00152604
0.00114821
0.0013264
0.00191584
0.00184521
0.00183484
0.00238088
0.00268983
0.00260305
0.0029052
0.00350842
0.00382848
0.00392327
0.00416085
0.00453125
0.00482627
9.18118e-05
0.00119844
0.000961876
0.000644939
0.00152856
0.00115656
0.00131934
0.00192394
0.00183589
0.00184362
0.00236368
0.00269647
0.00260354
0.00287787
0.00350377
0.0037858
0.00383618
0.00405063
0.00439846
0.00466345
0.000115078
0.00118523
0.000989387
0.000646977
0.00152981
0.00116787
0.00130737
0.0019358
0.00182441
0.00185087
0.00235011
0.00268962
0.00261229
0.00284232
0.00347658
0.00375013
0.0037369
0.00392442
0.00427125
0.00451011
0.000141207
0.00116935
0.0010181
0.000650823
0.0015274
0.00118416
0.00129113
0.00194999
0.00181172
0.00185161
0.00234547
0.00266874
0.00262256
0.00280987
0.00341943
0.00371367
0.00364907
0.00378463
0.00413411
0.00436586
0.000170078
0.00115104
0.00104752
0.000656158
0.00152136
0.0012068
0.00126925
0.00196398
0.00180415
0.00184225
0.00234972
0.00263649
0.00262225
0.00278832
0.00333666
0.00365376
0.00357475
0.0036449
0.00398029
0.00422586
0.000202047
0.00113026
0.00107655
0.000664863
0.00151035
0.00123509
0.00124352
0.00197554
0.00180465
0.00181886
0.00235882
0.00260792
0.00260095
0.00277493
0.00325343
0.00356455
0.00350222
0.00352458
0.00382019
0.00407243
0.000237165
0.00110714
0.00110478
0.000677494
0.00149289
0.00127026
0.00121566
0.00197907
0.00181869
0.00178276
0.00236443
0.00259167
0.00255388
0.00275876
0.00319074
0.0034543
0.00340722
0.00341815
0.00367206
0.00390975
0.00027543
0.00108218
0.00113105
0.000694935
0.00146895
0.00131059
0.00118845
0.00197303
0.00184732
0.00173798
0.00235471
0.00259583
0.00249162
0.00271379
0.00314474
0.00334771
0.00328617
0.00330603
0.00354258
0.00375421
0.000316782
0.00105588
0.00115423
0.00071828
0.00143821
0.00135394
0.00116646
0.00194865
0.00188848
0.00169372
0.0023203
0.0026121
0.00243381
0.00263204
0.00309955
0.0032687
0.00315128
0.0031642
0.00341654
0.00362335
0.000360966
0.00102907
0.0011732
0.000747837
0.00140129
0.00139734
0.00115407
0.00190575
0.00193582
0.00166153
0.00225616
0.00263083
0.00240061
0.00251727
0.00302403
0.0032136
0.00303116
0.00299603
0.003265
0.00350609
0.000407612
0.00100275
0.00118689
0.00078356
0.00135964
0.00143673
0.00115474
0.00184458
0.00197961
0.00165032
0.00216421
0.00263208
0.0023962
0.00238988
0.00290194
0.00316583
0.00295063
0.00282248
0.0030708
0.00337303
0.000456179
0.000978009
0.00119452
0.000824732
0.00131548
0.001468
0.00116975
0.00176818
0.00201013
0.00166327
0.00205529
0.00259848
0.00241604
0.00228247
0.00273896
0.00309197
0.00290427
0.00267737
0.00284997
0.00319132
0.000505991
0.000955957
0.00119566
0.000869919
0.00127194
0.0014877
0.00119835
0.00168581
0.002019
0.00169722
0.001948
0.00252348
0.00244088
0.00221268
0.00255136
0.00296826
0.0028708
0.00258134
0.00263374
0.00295865
0.000556257
0.000937603
0.00119041
0.00091707
0.00123225
0.00149379
0.00123795
0.00161161
0.00200129
0.00174265
0.00185882
0.00241
0.00244536
0.00217899
0.00237099
0.00279684
0.00281545
0.00252406
0.00245686
0.00270491
0.00060612
0.000923888
0.00117938
0.00096368
0.00119921
0.00148586
0.00128323
0.00154694
0.00195617
0.00178627
0.00179597
0.00227023
0.00241208
0.00217019
0.00222411
0.00259476
0.00271498
0.00248193
0.00232988
0.00246758
0.00065473
0.000915002
0.00116371
0.00100704
0.00117483
0.0014654
0.00132782
0.00149621
0.00188832
0.00181414
0.00175802
0.00212561
0.00233781
0.00216353
0.00211709
0.00238857
0.00256814
0.00242444
0.0022384
0.00227245
0.000701251
0.000911155
0.00114494
0.00104476
0.00115948
0.00143537
0.00136227
0.00145998
0.00180681
0.00181757
0.00173836
0.00199382
0.00222949
0.00213668
0.00204076
0.00220386
0.00239003
0.00233327
0.00216119
0.00211934
0.000744919
0.000912039
0.00112484
0.00107511
0.00115162
0.00139932
0.00138455
0.00144071
0.00172237
0.0017948
0.00172453
0.00188236
0.00210019
0.00207943
0.00197933
0.0020511
0.00220233
0.00220684
0.00207672
0.00199542
0.000785125
0.000916964
0.00110507
0.00109701
0.00115139
0.00136108
0.0013918
0.00142528
0.00164262
0.0017487
0.00170457
0.0017904
0.00196583
0.00199362
0.0019151
0.00192526
0.00202458
0.00205647
0.00197346
0.00188453
0.00082143
0.000924966
0.00108691
0.00111016
0.00115259
0.0013239
0.00138446
0.0014112
0.00157083
0.00168536
0.00167114
0.00171224
0.00183782
0.00188732
0.00183758
0.0018161
0.00186547
0.0018977
0.00185105
0.00177335
0.000853578
0.000934882
0.00107114
0.00111526
0.00115336
0.00128945
0.00136477
0.00139343
0.00150677
0.00161236
0.00162234
0.0016406
0.00172077
0.00177048
0.00174476
0.00171292
0.00172474
0.00174287
0.00171624
0.00165532
0.00088145
0.00094553
0.00105799
0.00111362
0.00115158
0.00125778
0.00133578
0.00136906
0.00144841
0.00153591
0.00155999
0.00156889
0.00161397
0.00165178
0.0016402
0.00160897
0.0015978
0.00159813
0.00157763
0.00153057
0.000905027
0.000955836
0.00104716
0.00110671
0.00114584
0.00122807
0.00130062
0.00133716
0.00139294
0.00145961
0.00148774
0.00149338
0.00151439
0.00153634
0.0015295
0.00150194
0.00147902
0.00146443
0.00144208
0.00140315
0.000924405
0.000964962
0.00103805
0.00109587
0.00113544
0.00119911
0.00126161
0.00129805
0.00133781
0.0013849
0.00140975
0.00141339
0.00141911
0.00142621
0.00141771
0.00139268
0.00136467
0.00134018
0.00131331
0.00127763
0.000939472
0.00097196
0.00102975
0.00108209
0.00112025
0.00116965
0.00122024
0.0012531
0.0012814
0.00131195
0.00132944
0.00133007
0.00132615
0.00132145
0.0013082
0.00128349
0.00125342
0.00122337
0.00119241
0.00115728
0.000950577
0.000976327
0.00102133
0.00106604
0.0011007
0.00113878
0.00117736
0.00120401
0.00122315
0.00124039
0.00124907
0.00124531
0.00123478
0.00122146
0.00120282
0.00117673
0.00114558
0.00111278
0.00107919
0.00104374
0.000957662
0.000977726
0.00101203
0.00104815
0.00107751
0.00110603
0.00113342
0.00115234
0.00116334
0.00116995
0.00116997
0.00116098
0.00114531
0.00112583
0.00110243
0.00107423
0.00104213
0.0010081
0.000973245
0.00093761
0.000960946
0.000976053
0.00100127
0.00102866
0.00105147
0.00107143
0.00108874
0.00109943
0.0011028
0.00110074
0.00109305
0.00107868
0.00105859
0.00103461
0.00100746
0.000977129
0.000944137
0.000909585
0.000874404
0.000839008
0.000960602
0.000971336
0.000988756
0.00100775
0.00102339
0.00103539
0.00104371
0.00104636
0.00104257
0.00103329
0.00101902
0.000999604
0.000975616
0.000948219
0.000918265
0.000886178
0.000852433
0.000817732
0.000782757
0.000747965
0.000956924
0.000963785
0.000974449
0.000985675
0.000994063
0.000998568
0.00099891
0.000994119
0.00098374
0.000968344
0.000948566
0.000924733
0.000897369
0.000867298
0.000835293
0.000801916
0.000767656
0.000733033
0.000698545
0.000664578
0.000950348
0.000953795
0.000958603
0.000962836
0.00096428
0.000961843
0.00095513
0.0009437
0.000927438
0.000906818
0.00088247
0.000854923
0.000824732
0.000792558
0.000759061
0.000724804
0.000690266
0.000655878
0.000622018
0.000588982
0.000941491
0.000941966
0.000941744
0.00093984
0.000934942
0.000926237
0.000913389
0.000896229
0.000874858
0.000849772
0.000821613
0.000790991
0.000758478
0.000724651
0.000690067
0.00065523
0.00062057
0.00058646
0.00055321
0.000521064
0.000931203
0.000929184
0.000924749
0.00091764
0.000907229
0.000893095
0.000875096
0.000853232
0.000827699
0.000798979
0.000767727
0.000734603
0.000700201
0.000665059
0.000629668
0.000594464
0.000559812
0.000525995
0.000493232
0.000461688
0.000920168
0.000916272
0.000908676
0.000897633
0.000883014
0.000864767
0.000842928
0.000817571
0.000788934
0.000757527
0.000724031
0.000689123
0.000653395
0.000617352
0.000581443
0.000546061
0.000511531
0.000478105
0.000445962
0.000415224
0.000908032
0.000901515
0.000890217
0.000874826
0.000855752
0.000833333
0.000807685
0.000778824
0.000746989
0.000712756
0.000676866
0.000640007
0.000602732
0.000565493
0.000528681
0.000492639
0.000457656
0.000423951
0.000391684
0.000360955
0.00673905
0.0065752
0.00580393
0.00523843
0.00484512
0.00421989
0.00349799
0.00300911
0.00264584
0.00232373
0.00204882
0.00173817
0.00146837
0.0011757
0.000677486
0.000163698
-0.000297474
-0.000998435
-0.0018238
-0.00244802
-0.00319423
-0.0044138
-0.00550463
-0.0055951
-0.00473211
-0.00368087
-0.00298618
-0.00265986
-0.0024827
-0.00233245
-0.00219798
-0.00208123
-0.00198146
-0.00189961
-0.00183884
-0.00179975
-0.0017788
-0.00177084
-0.00177137
-0.00177721
-0.00178681
-0.0017988
-0.00181296
-0.0018293
-0.00184773
-0.00186818
-0.00189057
-0.00191482
-0.00194086
-0.00196858
-0.00199791
-0.00202876
-0.00206106
-0.00209474
-0.00212974
-0.00216601
-0.00220351
-0.0022422
-0.00228203
-0.00232299
-0.00236503
-0.00240815
-0.00245233
-0.00249755
-0.0025438
-0.00259107
-0.00263936
-0.00268866
-0.00273899
-0.00279035
-0.00284272
-0.00289613
-0.00295057
-0.00300607
-0.00306262
-0.00312024
-0.00317894
-0.00323875
-0.00329964
-0.0033617
-0.00342483
-0.00348925
-0.00355463
-0.0036216
-0.0036891
-0.00375894
-0.00382829
-0.00390144
-0.00397237
-0.00404883
-0.00412202
-0.00419983
-0.00427802
-0.00435256
-0.00443716
-0.00450589
-0.00458374
-0.00464975
-0.00468703
-0.00471771
0.00609823
0.00616873
0.00569644
0.00522129
0.00482634
0.0041841
0.00345532
0.00297589
0.00262166
0.00229932
0.00202168
0.00171189
0.00144796
0.0011587
0.000659367
0.000149329
-0.000305968
-0.00100738
-0.00182835
-0.00243364
-0.00315459
-0.00436098
-0.00545518
-0.00555547
-0.00470003
-0.00366306
-0.00297994
-0.00265687
-0.00247996
-0.00233042
-0.0021975
-0.00208176
-0.00198252
-0.00190072
-0.00183969
-0.00180018
-0.00177886
-0.00177069
-0.00177116
-0.00177702
-0.00178668
-0.00179872
-0.00181291
-0.00182928
-0.00184772
-0.00186817
-0.00189056
-0.00191482
-0.00194085
-0.00196858
-0.00199791
-0.00202876
-0.00206106
-0.00209474
-0.00212974
-0.00216601
-0.00220351
-0.0022422
-0.00228203
-0.00232299
-0.00236503
-0.00240815
-0.00245233
-0.00249755
-0.0025438
-0.00259107
-0.00263936
-0.00268866
-0.00273899
-0.00279035
-0.00284272
-0.00289613
-0.00295057
-0.00300607
-0.00306262
-0.00312024
-0.00317894
-0.00323875
-0.00329964
-0.0033617
-0.00342483
-0.00348925
-0.00355463
-0.0036216
-0.0036891
-0.00375894
-0.00382828
-0.00390144
-0.00397237
-0.00404883
-0.00412202
-0.00419984
-0.00427803
-0.00435255
-0.00443717
-0.00450591
-0.00458375
-0.00464979
-0.00468715
-0.00471777
0.00577856
0.00591603
0.00563334
0.00525627
0.0048568
0.0041815
0.00342381
0.00294437
0.00261121
0.00228046
0.00198334
0.00168395
0.00142787
0.00113293
0.000640851
0.000136025
-0.000323988
-0.00101577
-0.00181589
-0.00240445
-0.0030895
-0.00422096
-0.00524602
-0.00534578
-0.00455556
-0.00359695
-0.00297193
-0.00266157
-0.00248669
-0.00233388
-0.00219931
-0.00208321
-0.00198412
-0.00190255
-0.00184169
-0.00180219
-0.00178068
-0.00177214
-0.0017722
-0.00177768
-0.00178706
-0.00179891
-0.001813
-0.00182931
-0.00184772
-0.00186816
-0.00189055
-0.0019148
-0.00194084
-0.00196857
-0.0019979
-0.00202875
-0.00206105
-0.00209473
-0.00212973
-0.002166
-0.0022035
-0.00224219
-0.00228203
-0.00232298
-0.00236503
-0.00240815
-0.00245233
-0.00249755
-0.0025438
-0.00259107
-0.00263936
-0.00268866
-0.00273899
-0.00279035
-0.00284272
-0.00289613
-0.00295057
-0.00300607
-0.00306262
-0.00312024
-0.00317894
-0.00323875
-0.00329964
-0.0033617
-0.00342483
-0.00348925
-0.00355463
-0.0036216
-0.0036891
-0.00375894
-0.00382828
-0.00390144
-0.00397237
-0.00404883
-0.00412202
-0.00419984
-0.00427803
-0.00435258
-0.00443717
-0.00450596
-0.00458378
-0.00464981
-0.00468748
-0.00471794
0.00550925
0.00564778
0.00546729
0.00518935
0.00483256
0.00416126
0.00338476
0.00290417
0.00258249
0.00223732
0.00193226
0.00164914
0.00139547
0.00110055
0.000620138
0.000113039
-0.000347468
-0.00101513
-0.00179563
-0.00237596
-0.00301292
-0.00404922
-0.00501497
-0.00514788
-0.00445634
-0.00357589
-0.00297649
-0.00266748
-0.00248813
-0.00233201
-0.00219687
-0.00208213
-0.00198502
-0.0019051
-0.00184507
-0.00180553
-0.0017834
-0.00177406
-0.0017734
-0.00177834
-0.00178741
-0.00179906
-0.00181303
-0.0018293
-0.0018477
-0.00186813
-0.00189051
-0.00191477
-0.00194081
-0.00196854
-0.00199787
-0.00202873
-0.00206103
-0.00209472
-0.00212972
-0.00216599
-0.00220349
-0.00224218
-0.00228202
-0.00232298
-0.00236502
-0.00240814
-0.00245232
-0.00249754
-0.0025438
-0.00259107
-0.00263935
-0.00268866
-0.00273899
-0.00279035
-0.00284272
-0.00289613
-0.00295057
-0.00300606
-0.00306262
-0.00312024
-0.00317894
-0.00323875
-0.00329964
-0.0033617
-0.00342483
-0.00348925
-0.00355463
-0.0036216
-0.0036891
-0.00375894
-0.00382828
-0.00390144
-0.00397237
-0.00404883
-0.00412202
-0.00419985
-0.00427803
-0.00435259
-0.00443718
-0.00450602
-0.00458384
-0.00464985
-0.00468784
-0.00471815
0.00525557
0.00538185
0.00527563
0.00508474
0.00478892
0.00414426
0.00336156
0.00286789
0.00254622
0.00219555
0.00188364
0.00160846
0.00136502
0.00107629
0.000598616
8.98943e-05
-0.000359487
-0.00100549
-0.00177523
-0.00233854
-0.002914
-0.0038659
-0.00479025
-0.00495043
-0.00431671
-0.00349417
-0.00294186
-0.00265825
-0.00247827
-0.00232636
-0.00219287
-0.00208016
-0.00198505
-0.00190664
-0.00184738
-0.00180793
-0.00178544
-0.00177556
-0.00177438
-0.00177888
-0.00178768
-0.00179915
-0.00181303
-0.00182927
-0.00184765
-0.00186807
-0.00189046
-0.00191472
-0.00194077
-0.0019685
-0.00199784
-0.0020287
-0.00206101
-0.00209469
-0.0021297
-0.00216597
-0.00220348
-0.00224217
-0.00228201
-0.00232297
-0.00236501
-0.00240813
-0.00245232
-0.00249754
-0.00254379
-0.00259106
-0.00263935
-0.00268866
-0.00273899
-0.00279034
-0.00284272
-0.00289613
-0.00295057
-0.00300606
-0.00306262
-0.00312024
-0.00317894
-0.00323875
-0.00329964
-0.0033617
-0.00342483
-0.00348925
-0.00355463
-0.0036216
-0.0036891
-0.00375894
-0.00382828
-0.00390144
-0.00397237
-0.00404884
-0.00412202
-0.00419985
-0.00427803
-0.00435262
-0.00443719
-0.00450609
-0.00458392
-0.0046499
-0.0046882
-0.00471839
0.0050245
0.00513344
0.00507787
0.00495044
0.00471138
0.00411305
0.00334461
0.00283972
0.00252076
0.00216109
0.00182673
0.00156002
0.00133585
0.00104883
0.000575348
7.66278e-05
-0.000366915
-0.00100133
-0.00175018
-0.00228376
-0.00280884
-0.00369663
-0.00457272
-0.00473728
-0.00417
-0.00343701
-0.00293606
-0.0026609
-0.00247858
-0.00232255
-0.00218975
-0.00207881
-0.00198582
-0.00190918
-0.00185092
-0.00181162
-0.00178863
-0.00177797
-0.001776
-0.00177982
-0.00178822
-0.00179936
-0.00181305
-0.00182922
-0.00184757
-0.00186798
-0.00189037
-0.00191464
-0.0019407
-0.00196844
-0.00199778
-0.00202865
-0.00206096
-0.00209466
-0.00212967
-0.00216595
-0.00220345
-0.00224215
-0.00228199
-0.00232295
-0.002365
-0.00240812
-0.00245231
-0.00249753
-0.00254378
-0.00259106
-0.00263935
-0.00268865
-0.00273899
-0.00279034
-0.00284272
-0.00289613
-0.00295057
-0.00300606
-0.00306262
-0.00312024
-0.00317894
-0.00323875
-0.00329964
-0.0033617
-0.00342483
-0.00348925
-0.00355463
-0.0036216
-0.0036891
-0.00375894
-0.00382828
-0.00390145
-0.00397237
-0.00404884
-0.00412202
-0.00419986
-0.00427804
-0.00435265
-0.00443721
-0.00450616
-0.00458402
-0.00464996
-0.00468858
-0.00471866
0.00480988
0.00489066
0.00486832
0.00479268
0.00460895
0.00406784
0.00332708
0.00282437
0.00250208
0.00211643
0.00176313
0.00151168
0.00129765
0.00101511
0.000562751
6.8841e-05
-0.000384252
-0.000996549
-0.00170771
-0.00222252
-0.00271981
-0.00353488
-0.00434054
-0.00451551
-0.00403107
-0.00337223
-0.00290371
-0.00264149
-0.00246459
-0.00231129
-0.00218326
-0.00207497
-0.00198435
-0.0019095
-0.00185224
-0.0018132
-0.00179
-0.00177892
-0.00177656
-0.00177999
-0.00178824
-0.00179902
-0.00181295
-0.00182909
-0.00184743
-0.00186785
-0.00189025
-0.00191453
-0.0019406
-0.00196835
-0.00199771
-0.00202858
-0.00206091
-0.00209461
-0.00212962
-0.00216591
-0.00220342
-0.00224212
-0.00228197
-0.00232293
-0.00236498
-0.00240811
-0.00245229
-0.00249752
-0.00254378
-0.00259105
-0.00263934
-0.00268865
-0.00273898
-0.00279034
-0.00284271
-0.00289612
-0.00295057
-0.00300606
-0.00306261
-0.00312024
-0.00317894
-0.00323874
-0.00329964
-0.0033617
-0.00342483
-0.00348925
-0.00355463
-0.0036216
-0.0036891
-0.00375895
-0.00382828
-0.00390145
-0.00397237
-0.00404884
-0.00412203
-0.00419987
-0.00427804
-0.00435269
-0.00443723
-0.00450624
-0.00458415
-0.00465003
-0.00468895
-0.00471895
0.00460525
0.00465769
0.00465796
0.00462384
0.00449034
0.00400337
0.00329441
0.00280464
0.00248085
0.00207579
0.00170722
0.00145753
0.00124733
0.000982208
0.000553906
5.56546e-05
-0.000400708
-0.000976743
-0.00165784
-0.00217405
-0.00263582
-0.00335622
-0.00409924
-0.00430281
-0.00388959
-0.00329313
-0.00286769
-0.0026281
-0.00245822
-0.00230919
-0.00217735
-0.00207141
-0.00198341
-0.00191076
-0.00185492
-0.00181639
-0.00179297
-0.00178128
-0.00177823
-0.00178095
-0.00178886
-0.00179919
-0.00181288
-0.00182894
-0.00184726
-0.00186768
-0.00189009
-0.00191438
-0.00194047
-0.00196823
-0.00199761
-0.0020285
-0.00206083
-0.00209454
-0.00212956
-0.00216586
-0.00220338
-0.00224208
-0.00228194
-0.0023229
-0.00236496
-0.00240809
-0.00245228
-0.00249751
-0.00254376
-0.00259104
-0.00263933
-0.00268864
-0.00273898
-0.00279033
-0.00284271
-0.00289612
-0.00295057
-0.00300606
-0.00306261
-0.00312024
-0.00317894
-0.00323874
-0.00329964
-0.0033617
-0.00342483
-0.00348925
-0.00355463
-0.0036216
-0.0036891
-0.00375895
-0.00382829
-0.00390145
-0.00397237
-0.00404885
-0.00412203
-0.00419989
-0.00427805
-0.00435273
-0.00443727
-0.00450632
-0.00458431
-0.00465011
-0.00468932
-0.00471928
0.00441734
0.0044387
0.00445333
0.004442
0.00434285
0.00391758
0.00324949
0.00277379
0.00246614
0.00204951
0.00164746
0.00139472
0.001198
0.000943848
0.000534358
4.84689e-05
-0.000399295
-0.000953385
-0.0016207
-0.00212512
-0.00253108
-0.00317002
-0.00387112
-0.00409289
-0.00373829
-0.00320964
-0.00283008
-0.0026078
-0.00244191
-0.00229539
-0.00216842
-0.00206595
-0.00198078
-0.00191019
-0.00185551
-0.00181737
-0.00179384
-0.00178181
-0.00177846
-0.00178074
-0.00178754
-0.00179896
-0.00181261
-0.00182867
-0.00184699
-0.00186743
-0.00188987
-0.00191419
-0.00194029
-0.00196808
-0.00199747
-0.00202838
-0.00206073
-0.00209445
-0.00212949
-0.00216579
-0.00220332
-0.00224204
-0.00228189
-0.00232287
-0.00236493
-0.00240806
-0.00245226
-0.00249749
-0.00254375
-0.00259103
-0.00263932
-0.00268863
-0.00273897
-0.00279033
-0.00284271
-0.00289611
-0.00295056
-0.00300606
-0.00306261
-0.00312024
-0.00317894
-0.00323874
-0.00329964
-0.0033617
-0.00342483
-0.00348925
-0.00355463
-0.0036216
-0.0036891
-0.00375895
-0.00382829
-0.00390145
-0.00397238
-0.00404885
-0.00412204
-0.0041999
-0.00427806
-0.00435277
-0.00443732
-0.00450641
-0.00458449
-0.0046502
-0.00468969
-0.00471963
0.00424404
0.00422869
0.00425314
0.00425159
0.0041723
0.00381734
0.00319647
0.00273011
0.00244637
0.00202495
0.00158906
0.00133877
0.00115067
0.000890002
0.000507964
5.81969e-05
-0.000389891
-0.000943287
-0.00158084
-0.00205112
-0.00242055
-0.00300145
-0.00364823
-0.00387515
-0.00358439
-0.00312433
-0.00278387
-0.00257886
-0.00242272
-0.00228191
-0.00215875
-0.00205917
-0.00197707
-0.0019091
-0.00185629
-0.00181914
-0.00179582
-0.00178353
-0.00177977
-0.00178148
-0.00178827
-0.00179891
-0.00181237
-0.00182837
-0.00184667
-0.00186713
-0.00188959
-0.00191394
-0.00194007
-0.00196789
-0.0019973
-0.00202823
-0.0020606
-0.00209434
-0.00212939
-0.00216571
-0.00220325
-0.00224198
-0.00228184
-0.00232282
-0.00236489
-0.00240803
-0.00245223
-0.00249747
-0.00254373
-0.00259101
-0.00263931
-0.00268862
-0.00273896
-0.00279032
-0.0028427
-0.00289611
-0.00295056
-0.00300605
-0.00306261
-0.00312023
-0.00317894
-0.00323874
-0.00329964
-0.0033617
-0.00342483
-0.00348925
-0.00355463
-0.0036216
-0.0036891
-0.00375895
-0.00382829
-0.00390145
-0.00397238
-0.00404886
-0.00412204
-0.00419992
-0.00427808
-0.00435282
-0.00443738
-0.00450651
-0.0045847
-0.00465031
-0.00469006
-0.00472001
0.00408083
0.0040272
0.00405378
0.00407086
0.00399238
0.00368678
0.00313037
0.00267812
0.00241013
0.00200479
0.00154809
0.00128512
0.0010935
0.000830979
0.000484209
6.68069e-05
-0.000386868
-0.000922795
-0.00151715
-0.00197596
-0.0023283
-0.00283572
-0.00341655
-0.00365768
-0.00343322
-0.00303301
-0.00272918
-0.00254513
-0.00240029
-0.00226448
-0.00214592
-0.00205079
-0.00197235
-0.00190707
-0.00185589
-0.00181944
-0.00179619
-0.00178365
-0.0017797
-0.00178098
-0.00178786
-0.00179842
-0.00181188
-0.00182789
-0.00184623
-0.00186672
-0.00188923
-0.00191362
-0.00193979
-0.00196764
-0.00199709
-0.00202805
-0.00206044
-0.0020942
-0.00212927
-0.00216561
-0.00220316
-0.0022419
-0.00228178
-0.00232277
-0.00236485
-0.00240799
-0.00245219
-0.00249744
-0.0025437
-0.00259099
-0.00263929
-0.00268861
-0.00273895
-0.00279031
-0.00284269
-0.0028961
-0.00295055
-0.00300605
-0.0030626
-0.00312023
-0.00317893
-0.00323874
-0.00329964
-0.00336169
-0.00342483
-0.00348925
-0.00355463
-0.0036216
-0.0036891
-0.00375895
-0.00382829
-0.00390146
-0.00397238
-0.00404886
-0.00412205
-0.00419994
-0.0042781
-0.00435287
-0.00443746
-0.00450661
-0.00458494
-0.00465044
-0.00469041
-0.00472042
0.00391341
0.00383028
0.00385532
0.0039007
0.00381092
0.00352601
0.00304608
0.00262438
0.00236325
0.00198263
0.00151481
0.00122769
0.00103856
0.000783646
0.000448773
5.59234e-05
-0.000368192
-0.000874362
-0.00145743
-0.00191708
-0.00223193
-0.00265936
-0.00318955
-0.00344881
-0.00328065
-0.00293426
-0.00266762
-0.00250536
-0.00237249
-0.00224362
-0.0021309
-0.00204036
-0.00196569
-0.00190332
-0.0018543
-0.00181922
-0.00179661
-0.00178418
-0.00178019
-0.00178175
-0.00178776
-0.00179801
-0.00181136
-0.00182734
-0.0018457
-0.00186623
-0.00188878
-0.00191322
-0.00193944
-0.00196733
-0.00199682
-0.00202781
-0.00206024
-0.00209403
-0.00212912
-0.00216548
-0.00220305
-0.0022418
-0.00228169
-0.0023227
-0.00236479
-0.00240794
-0.00245215
-0.0024974
-0.00254367
-0.00259096
-0.00263927
-0.00268859
-0.00273893
-0.0027903
-0.00284268
-0.00289609
-0.00295054
-0.00300604
-0.0030626
-0.00312023
-0.00317893
-0.00323874
-0.00329964
-0.00336169
-0.00342483
-0.00348925
-0.00355463
-0.0036216
-0.0036891
-0.00375895
-0.00382829
-0.00390146
-0.00397239
-0.00404887
-0.00412206
-0.00419996
-0.00427813
-0.00435292
-0.00443755
-0.00450672
-0.0045852
-0.0046506
-0.00469076
-0.00472086
0.00373909
0.00363525
0.00365161
0.00372457
0.00364622
0.00335833
0.00292868
0.00256107
0.00231545
0.00194819
0.0014799
0.00118146
0.00099465
0.000731097
0.00039821
4.84903e-05
-0.000335766
-0.000828979
-0.00140144
-0.00184523
-0.00212694
-0.00249359
-0.00297342
-0.00323966
-0.00312332
-0.00283105
-0.00260036
-0.00245936
-0.00233977
-0.00221928
-0.00211291
-0.00202762
-0.00195741
-0.00189851
-0.00185184
-0.00181806
-0.00179596
-0.00178355
-0.00177826
-0.0017807
-0.00178692
-0.00179718
-0.00181054
-0.00182658
-0.001845
-0.00186559
-0.00188821
-0.00191272
-0.001939
-0.00196695
-0.00199649
-0.00202753
-0.00205999
-0.00209381
-0.00212894
-0.00216532
-0.00220292
-0.00224169
-0.00228159
-0.00232261
-0.00236471
-0.00240788
-0.0024521
-0.00249736
-0.00254364
-0.00259093
-0.00263924
-0.00268857
-0.00273891
-0.00279028
-0.00284267
-0.00289608
-0.00295054
-0.00300604
-0.00306259
-0.00312022
-0.00317893
-0.00323873
-0.00329963
-0.00336169
-0.00342483
-0.00348925
-0.00355463
-0.0036216
-0.0036891
-0.00375895
-0.0038283
-0.00390146
-0.00397239
-0.00404888
-0.00412207
-0.00419998
-0.00427816
-0.00435298
-0.00443766
-0.00450684
-0.00458548
-0.00465077
-0.0046911
-0.00472132
0.00357703
0.00343543
0.00343401
0.00353706
0.00349726
0.00320231
0.00278108
0.00247178
0.00227059
0.00190955
0.00144044
0.00114401
0.000949876
0.000676079
0.000360357
4.03504e-05
-0.00032412
-0.000782408
-0.00131836
-0.00176242
-0.00203633
-0.00233898
-0.00275588
-0.00302875
-0.00296786
-0.00272686
-0.00252717
-0.00240619
-0.00230143
-0.00219109
-0.00209193
-0.00201235
-0.00194696
-0.00189177
-0.0018477
-0.00181564
-0.00179451
-0.00178264
-0.00177791
-0.00177986
-0.00178606
-0.00179622
-0.00180958
-0.00182565
-0.00184414
-0.00186482
-0.00188752
-0.00191211
-0.00193847
-0.00196649
-0.00199608
-0.00202717
-0.00205968
-0.00209355
-0.00212871
-0.00216512
-0.00220275
-0.00224154
-0.00228147
-0.00232251
-0.00236462
-0.0024078
-0.00245204
-0.0024973
-0.00254359
-0.00259089
-0.00263921
-0.00268854
-0.00273889
-0.00279026
-0.00284265
-0.00289607
-0.00295053
-0.00300603
-0.00306259
-0.00312022
-0.00317892
-0.00323873
-0.00329963
-0.00336169
-0.00342483
-0.00348925
-0.00355463
-0.0036216
-0.00368911
-0.00375896
-0.0038283
-0.00390147
-0.0039724
-0.00404889
-0.00412209
-0.00420001
-0.0042782
-0.00435305
-0.00443779
-0.00450697
-0.00458579
-0.00465098
-0.00469142
-0.00472179
0.00344484
0.00324331
0.00320785
0.00333125
0.00334155
0.00307175
0.00263204
0.00234305
0.0022127
0.00188086
0.00139508
0.00109742
0.000912202
0.000637766
0.000323924
1.51832e-05
-0.0003186
-0.000721853
-0.00122364
-0.00167915
-0.00194796
-0.00218821
-0.00254536
-0.00282415
-0.00281413
-0.00261895
-0.00244699
-0.00234593
-0.00225766
-0.00215889
-0.00206754
-0.00199421
-0.00193417
-0.00188317
-0.00184202
-0.00181183
-0.0017919
-0.00178048
-0.00177622
-0.0017782
-0.00178458
-0.00179484
-0.00180829
-0.00182447
-0.00184307
-0.00186386
-0.00188667
-0.00191136
-0.00193781
-0.00196592
-0.00199559
-0.00202674
-0.00205931
-0.00209323
-0.00212844
-0.00216489
-0.00220255
-0.00224137
-0.00228132
-0.00232238
-0.00236452
-0.00240771
-0.00245196
-0.00249724
-0.00254353
-0.00259085
-0.00263917
-0.00268851
-0.00273887
-0.00279024
-0.00284264
-0.00289606
-0.00295051
-0.00300602
-0.00306258
-0.00312021
-0.00317892
-0.00323873
-0.00329963
-0.00336169
-0.00342483
-0.00348925
-0.00355463
-0.0036216
-0.00368911
-0.00375896
-0.00382831
-0.00390147
-0.00397241
-0.0040489
-0.00412211
-0.00420004
-0.00427825
-0.00435312
-0.00443794
-0.00450712
-0.00458612
-0.00465121
-0.00469174
-0.00472229
0.00334386
0.00308625
0.00298184
0.00310246
0.00316545
0.00295686
0.00250844
0.002185
0.00211839
0.00186365
0.00135552
0.00103768
0.000882736
0.000608126
0.000280512
-4.60443e-06
-0.000306543
-0.000673757
-0.00113019
-0.00157541
-0.00185443
-0.00205649
-0.00234988
-0.0026194
-0.00265646
-0.00250871
-0.00236282
-0.00227966
-0.00220826
-0.00212244
-0.00203978
-0.00197315
-0.00191878
-0.00187227
-0.00183442
-0.00180655
-0.00178813
-0.00177768
-0.00177399
-0.00177612
-0.00178271
-0.0017931
-0.00180669
-0.00182301
-0.00184175
-0.00186269
-0.00188564
-0.00191046
-0.00193702
-0.00196523
-0.00199499
-0.00202623
-0.00205886
-0.00209284
-0.0021281
-0.0021646
-0.0022023
-0.00224116
-0.00228114
-0.00232223
-0.00236438
-0.0024076
-0.00245186
-0.00249716
-0.00254347
-0.00259079
-0.00263912
-0.00268847
-0.00273883
-0.00279021
-0.00284261
-0.00289604
-0.0029505
-0.00300601
-0.00306257
-0.0031202
-0.00317891
-0.00323872
-0.00329962
-0.00336169
-0.00342483
-0.00348925
-0.00355463
-0.0036216
-0.00368911
-0.00375896
-0.00382831
-0.00390148
-0.00397242
-0.00404892
-0.00412213
-0.00420007
-0.00427831
-0.00435319
-0.0044381
-0.00450727
-0.00458646
-0.00465148
-0.00469205
-0.00472279
0.0032489
0.00297734
0.00277526
0.00286121
0.00296362
0.00283204
0.00241909
0.00203253
0.00197554
0.00183421
0.0013386
0.000971106
0.000840399
0.00058711
0.000249665
-1.84902e-05
-0.000300551
-0.000638313
-0.00103327
-0.001456
-0.00176067
-0.00194009
-0.00216461
-0.00241492
-0.0024984
-0.00239892
-0.00227571
-0.00220728
-0.00215294
-0.00208155
-0.00200832
-0.00194863
-0.00190035
-0.00185892
-0.00182488
-0.00179968
-0.00178304
-0.00177376
-0.00177079
-0.0017733
-0.00178022
-0.00179087
-0.00180468
-0.00182121
-0.00184015
-0.00186127
-0.00188439
-0.00190936
-0.00193607
-0.0019644
-0.00199427
-0.0020256
-0.00205832
-0.00209238
-0.0021277
-0.00216426
-0.002202
-0.0022409
-0.00228092
-0.00232204
-0.00236423
-0.00240747
-0.00245175
-0.00249706
-0.00254339
-0.00259072
-0.00263907
-0.00268842
-0.00273879
-0.00279018
-0.00284259
-0.00289602
-0.00295048
-0.00300599
-0.00306256
-0.00312019
-0.0031789
-0.00323871
-0.00329962
-0.00336168
-0.00342482
-0.00348925
-0.00355463
-0.00362161
-0.00368911
-0.00375897
-0.00382832
-0.00390149
-0.00397244
-0.00404893
-0.00412216
-0.00420011
-0.00427838
-0.00435328
-0.00443829
-0.00450745
-0.00458682
-0.00465178
-0.00469235
-0.00472331
0.00311814
0.00290121
0.00261473
0.00262333
0.00273906
0.00267959
0.00234501
0.00191677
0.00180083
0.00176394
0.00134415
0.000913687
0.000777299
0.00057563
0.000234407
-3.76318e-05