/*--------------------------------*- C++ -*----------------------------------*\
| =========                 |                                                 |
| \\      /  F ield         | OpenFOAM: The Open Source CFD Toolbox           |
|  \\    /   O peration     | Version:  v1906                                 |
|   \\  /    A nd           | Web:      www.OpenFOAM.com                      |
|    \\/     M anipulation  |                                                 |
\*---------------------------------------------------------------------------*/
FoamFile
{
    version     2.0;
    format      ascii;
    class       surfaceScalarField;
    location    "0.1";
    object      phi;
}
// * * * * * * * * * * * * * * * * * * * * * * * * * * * * * * * * * * * * * //

dimensions      [0 3 -1 0 0 0 0];
oriented        oriented;


internalField   nonuniform List<scalar> 
9440
(
3.91055e-06
-2.65662e-07
3.86357e-06
3.18278e-07
3.87987e-06
-1.62078e-08
3.88888e-06
-2.40143e-07
3.8701e-06
2.09352e-07
3.86547e-06
6.28531e-08
3.87844e-06
-8.95929e-08
3.87856e-06
-1.28873e-07
3.87472e-06
6.37888e-08
3.86736e-06
7.4856e-08
3.86773e-06
5.34353e-08
3.8681e-06
-5.41333e-08
3.87246e-06
-5.06171e-08
3.87086e-06
-5.79274e-08
3.87049e-06
1.37771e-08
3.86833e-06
1.52385e-08
3.86468e-06
4.73575e-08
3.85818e-06
2.79351e-08
3.84552e-06
3.31902e-08
2.29614e-08
3.82823e-06
4.1957e-06
-2.75497e-07
4.18982e-06
3.24149e-07
4.18691e-06
-1.32911e-08
4.19098e-06
-2.44212e-07
4.18158e-06
2.1875e-07
4.18559e-06
5.88448e-08
4.18478e-06
-8.8786e-08
4.18203e-06
-1.26123e-07
4.18078e-06
6.50345e-08
4.18186e-06
7.37838e-08
4.18323e-06
5.20612e-08
4.17921e-06
-5.01099e-08
4.18008e-06
-5.14915e-08
4.17349e-06
-5.1332e-08
4.17659e-06
1.06705e-08
4.17144e-06
2.03909e-08
4.17365e-06
4.51474e-08
4.16423e-06
3.73589e-08
4.15956e-06
3.78606e-08
3.05935e-08
4.15192e-06
4.51348e-06
-2.68915e-07
4.52897e-06
3.08659e-07
4.51902e-06
-3.33956e-09
4.51649e-06
-2.4168e-07
4.51929e-06
2.15949e-07
4.52502e-06
5.31145e-08
4.51899e-06
-8.2758e-08
4.51051e-06
-1.17646e-07
4.51485e-06
6.07013e-08
4.51787e-06
7.07611e-08
4.52351e-06
4.64164e-08
4.51474e-06
-4.13339e-08
4.51471e-06
-5.14659e-08
4.50381e-06
-4.04276e-08
4.50952e-06
4.9639e-09
4.50259e-06
2.73203e-08
4.50804e-06
3.96907e-08
4.50092e-06
4.44858e-08
4.49953e-06
3.92457e-08
3.75551e-08
4.49257e-06
4.86923e-06
-2.57194e-07
4.8899e-06
2.87984e-07
4.87928e-06
7.28585e-09
4.87394e-06
-2.36345e-07
4.88107e-06
2.08824e-07
4.88665e-06
4.7532e-08
4.88035e-06
-7.64552e-08
4.86904e-06
-1.06339e-07
4.87585e-06
5.38873e-08
4.87835e-06
6.82613e-08
4.88584e-06
3.89292e-08
4.87564e-06
-3.11343e-08
4.87462e-06
-5.04417e-08
4.86481e-06
-3.06208e-08
4.867e-06
2.77366e-09
4.86442e-06
2.99015e-08
4.86469e-06
3.94147e-08
4.86335e-06
4.58299e-08
4.85972e-06
4.28746e-08
4.12024e-08
4.85607e-06
5.25749e-06
-2.44037e-07
5.27961e-06
2.65869e-07
5.2688e-06
1.8091e-08
5.2628e-06
-2.30347e-07
5.27089e-06
2.00738e-07
5.27588e-06
4.25423e-08
5.27059e-06
-7.11718e-08
5.25766e-06
-9.34026e-08
5.26582e-06
4.57282e-08
5.26715e-06
6.69307e-08
5.27539e-06
3.06918e-08
5.26524e-06
-2.0987e-08
5.26289e-06
-4.80917e-08
5.25542e-06
-2.31525e-08
5.25375e-06
4.43901e-09
5.2543e-06
2.93567e-08
5.25232e-06
4.13986e-08
5.25203e-06
4.61183e-08
5.24937e-06
4.55315e-08
4.38383e-08
5.24673e-06
5.67758e-06
-2.30154e-07
5.70054e-06
2.4291e-07
5.68955e-06
2.90771e-08
5.68325e-06
-2.24051e-07
5.69196e-06
1.92033e-07
5.69589e-06
3.86086e-08
5.69191e-06
-6.71905e-08
5.67781e-06
-7.93032e-08
5.68675e-06
3.67889e-08
5.68764e-06
6.60417e-08
5.69491e-06
2.34175e-08
5.68675e-06
-1.28179e-08
5.68134e-06
-4.26858e-08
5.67742e-06
-1.92335e-08
5.67259e-06
9.26554e-09
5.67393e-06
2.80171e-08
5.67258e-06
4.27521e-08
5.67151e-06
4.71859e-08
5.67024e-06
4.68081e-08
4.61531e-08
5.66792e-06
6.13138e-06
-2.15667e-07
6.15497e-06
2.19325e-07
6.14404e-06
3.99997e-08
6.13724e-06
-2.17249e-07
6.1468e-06
1.82478e-07
6.14925e-06
3.61535e-08
6.14693e-06
-6.48658e-08
6.13179e-06
-6.4165e-08
6.14093e-06
2.76532e-08
6.14219e-06
6.47748e-08
6.14732e-06
1.82913e-08
6.14228e-06
-7.77595e-09
6.13362e-06
-3.40248e-08
6.1319e-06
-1.75226e-08
6.12662e-06
1.45524e-08
6.12607e-06
2.85695e-08
6.12668e-06
4.21418e-08
6.12524e-06
4.8626e-08
6.12423e-06
4.78126e-08
4.76785e-08
6.12271e-06
6.62154e-06
-2.00646e-07
6.64557e-06
1.95301e-07
6.63492e-06
5.06428e-08
6.62739e-06
-2.09713e-07
6.63808e-06
1.71787e-07
6.6388e-06
3.54347e-08
6.63806e-06
-6.41307e-08
6.62236e-06
-4.84691e-08
6.6309e-06
1.91162e-08
6.63362e-06
6.20563e-08
6.6356e-06
1.63148e-08
6.63368e-06
-5.86315e-09
6.62312e-06
-2.34612e-08
6.62114e-06
-1.55389e-08
6.61796e-06
1.77279e-08
6.61498e-06
3.15543e-08
6.61637e-06
4.07507e-08
6.6159e-06
4.90913e-08
6.61457e-06
4.91422e-08
4.85445e-08
6.61371e-06
7.15098e-06
-1.85191e-07
7.17515e-06
1.71123e-07
7.16514e-06
6.0658e-08
7.15659e-06
-2.01162e-07
7.16862e-06
1.5975e-07
7.16745e-06
3.66062e-08
7.16813e-06
-6.48128e-08
7.15267e-06
-3.3005e-08
7.15947e-06
1.23209e-08
7.16451e-06
5.70085e-08
7.16307e-06
1.77621e-08
7.1632e-06
-6.00152e-09
7.15324e-06
-1.34925e-08
7.14874e-06
-1.10428e-08
7.14823e-06
1.82354e-08
7.14439e-06
3.53942e-08
7.14459e-06
4.05544e-08
7.14561e-06
4.80657e-08
7.14446e-06
5.02964e-08
4.94256e-08
7.14358e-06
7.72283e-06
-1.69415e-07
7.74686e-06
1.47091e-07
7.73783e-06
6.96912e-08
7.72795e-06
-1.91281e-07
7.74154e-06
1.46155e-07
7.7385e-06
3.96484e-08
7.74011e-06
-6.6425e-08
7.72585e-06
-1.87467e-08
7.72987e-06
8.30178e-09
7.73764e-06
4.92412e-08
7.73355e-06
2.18495e-08
7.73376e-06
-6.21085e-09
7.72635e-06
-6.08433e-09
7.71909e-06
-3.77923e-09
7.7195e-06
1.78199e-08
7.71716e-06
3.77422e-08
7.71567e-06
4.20373e-08
7.71706e-06
4.66779e-08
7.71688e-06
5.04825e-08
5.04202e-08
7.71588e-06
8.34051e-06
-1.53462e-07
8.36404e-06
1.23554e-07
8.35635e-06
7.73848e-08
8.34491e-06
-1.79836e-07
8.3601e-06
1.30958e-07
8.35541e-06
4.43355e-08
8.35729e-06
-6.83007e-08
8.34524e-06
-6.69893e-09
8.34585e-06
7.69262e-09
8.35579e-06
3.92999e-08
8.3508e-06
2.68417e-08
8.34899e-06
-4.39864e-09
8.345e-06
-2.098e-09
8.33652e-06
4.70423e-09
8.33555e-06
1.87857e-08
8.33548e-06
3.78129e-08
8.33346e-06
4.40588e-08
8.33395e-06
4.61935e-08
8.33467e-06
4.97556e-08
5.09922e-08
8.3341e-06
9.00769e-06
-1.375e-07
9.03034e-06
1.00903e-07
9.02436e-06
8.3357e-08
9.01117e-06
-1.66642e-07
9.02782e-06
1.14307e-07
9.02201e-06
5.01508e-08
9.02325e-06
-6.95438e-08
9.01438e-06
2.16819e-09
9.01137e-06
1.0708e-08
9.02234e-06
2.83246e-08
9.01838e-06
3.08047e-08
9.01339e-06
5.85836e-10
9.0119e-06
-6.04419e-10
9.00455e-06
1.20546e-08
9.00108e-06
2.22561e-08
9.00218e-06
3.67075e-08
9.00132e-06
4.49189e-08
9.00071e-06
4.68043e-08
9.00147e-06
4.89986e-08
5.08814e-08
9.00158e-06
9.72832e-06
-1.21718e-07
9.74968e-06
7.95425e-08
9.74576e-06
8.72797e-08
9.73076e-06
-1.51638e-07
9.74854e-06
9.65234e-08
9.74229e-06
5.6396e-08
9.74198e-06
-6.92344e-08
9.73683e-06
7.32003e-09
9.73081e-06
1.67326e-08
9.7411e-06
1.803e-08
9.73973e-06
3.21794e-08
9.73178e-06
8.53057e-09
9.73079e-06
3.86272e-10
9.72632e-06
1.65302e-08
9.72107e-06
2.75068e-08
9.72143e-06
3.63419e-08
9.7222e-06
4.41489e-08
9.72153e-06
4.74792e-08
9.7216e-06
4.8923e-08
5.03815e-08
9.7221e-06
1.05067e-05
-1.06326e-07
1.05264e-05
5.98783e-08
1.05247e-05
8.88987e-08
1.0508e-05
-1.34943e-07
1.05264e-05
7.81814e-08
1.05206e-05
6.22026e-08
1.05179e-05
-6.65539e-08
1.05165e-05
8.69395e-09
1.05087e-05
2.45732e-08
1.05165e-05
1.01682e-08
1.05183e-05
3.04218e-08
1.0509e-05
1.77916e-08
1.05064e-05
3.00003e-09
1.0505e-05
1.79407e-08
1.04999e-05
3.26199e-08
1.04983e-05
3.79613e-08
1.04999e-05
4.25748e-08
1.05002e-05
4.70955e-08
1.04999e-05
4.93033e-08
5.01564e-08
1.05001e-05
1.13474e-05
-9.1537e-08
1.1365e-05
4.22855e-08
1.13658e-05
8.80754e-08
1.13477e-05
-1.1686e-07
1.13659e-05
6.00303e-08
1.13614e-05
6.66846e-08
1.13558e-05
-6.09789e-08
1.13577e-05
6.83406e-09
1.13496e-05
3.26111e-08
1.13537e-05
6.11663e-09
1.13582e-05
2.5912e-08
1.13495e-05
2.64372e-08
1.13443e-05
8.27117e-09
1.13447e-05
1.74806e-08
1.13416e-05
3.57921e-08
1.13383e-05
4.12479e-08
1.13391e-05
4.17652e-08
1.13407e-05
4.5525e-08
1.13408e-05
4.91711e-08
5.02941e-08
1.13407e-05
1.22554e-05
-7.75652e-08
1.22706e-05
2.70776e-08
1.22738e-05
8.48282e-08
1.22549e-05
-9.78917e-08
1.22719e-05
4.29336e-08
1.22696e-05
6.90753e-08
1.2261e-05
-5.24356e-08
1.22651e-05
2.79607e-09
1.22584e-05
3.93021e-08
1.22582e-05
6.31463e-09
1.22641e-05
1.99646e-08
1.22578e-05
3.27243e-08
1.22502e-05
1.58905e-08
1.22505e-05
1.7143e-08
1.225e-05
3.63164e-08
1.22465e-05
4.47301e-08
1.22457e-05
4.26321e-08
1.22476e-05
4.36018e-08
1.22488e-05
4.80027e-08
5.0163e-08
1.22489e-05
1.3236e-05
-6.46072e-08
1.32486e-05
1.44775e-08
1.3254e-05
7.93515e-08
1.32349e-05
-7.87099e-08
1.325e-05
2.77676e-08
1.32502e-05
6.88743e-08
1.32392e-05
-4.13954e-08
1.3244e-05
-1.96661e-09
1.32399e-05
4.34066e-08
1.32359e-05
1.02359e-08
1.32415e-05
1.44281e-08
1.32385e-05
3.56695e-08
1.32299e-05
2.4522e-08
1.32285e-05
1.85492e-08
1.323e-05
3.48179e-08
1.32279e-05
4.67885e-08
1.32257e-05
4.48963e-08
1.32268e-05
4.24918e-08
1.32287e-05
4.60733e-08
4.9137e-08
1.32297e-05
1.4295e-05
-5.28294e-08
1.43048e-05
4.58667e-09
1.43122e-05
7.20221e-08
1.42936e-05
-6.00856e-08
1.4306e-05
1.5286e-08
1.4309e-05
6.59511e-08
1.42963e-05
-2.87856e-08
1.43003e-05
-5.95691e-09
1.42994e-05
4.43568e-08
1.42931e-05
1.6554e-08
1.42966e-05
1.09465e-08
1.42967e-05
3.54791e-08
1.42889e-05
3.23809e-08
1.42852e-05
2.21871e-08
1.42873e-05
3.27455e-08
1.42874e-05
4.67246e-08
1.42849e-05
4.73936e-08
1.42847e-05
4.27043e-08
1.42866e-05
4.41321e-08
4.7339e-08
1.42884e-05
1.54385e-05
-4.23559e-08
1.54457e-05
-2.62699e-09
1.54544e-05
6.33663e-08
1.54371e-05
-4.27995e-08
1.54464e-05
6.00441e-09
1.54517e-05
6.06094e-08
1.54387e-05
-1.58041e-08
1.54408e-05
-8.01901e-09
1.54428e-05
4.24021e-08
1.54358e-05
2.35388e-08
1.54362e-05
1.04932e-08
1.54385e-05
3.32034e-08
1.54328e-05
3.80448e-08
1.54276e-05
2.739e-08
1.54288e-05
3.15958e-08
1.54306e-05
4.49411e-08
1.54291e-05
4.88264e-08
1.54279e-05
4.39291e-08
1.54292e-05
4.28596e-08
4.52613e-08
1.54313e-05
1.66734e-05
-3.32547e-08
1.66781e-05
-7.34057e-09
1.66874e-05
5.40154e-08
1.66721e-05
-2.75252e-08
1.66781e-05
8.60666e-11
1.66851e-05
5.35454e-08
1.6673e-05
-3.69469e-09
1.66725e-05
-7.51631e-09
1.66765e-05
3.84116e-08
1.66704e-05
2.9654e-08
1.66679e-05
1.29821e-08
1.66708e-05
3.03458e-08
1.66679e-05
4.09452e-08
1.66624e-05
3.28973e-08
1.66619e-05
3.20806e-08
1.66644e-05
4.24467e-08
1.66645e-05
4.86404e-08
1.66631e-05
4.5353e-08
1.66636e-05
4.23699e-08
4.34352e-08
1.66654e-05
1.80067e-05
-2.55356e-08
1.80092e-05
-9.85557e-09
1.80186e-05
4.46293e-08
1.80058e-05
-1.47446e-08
1.80085e-05
-2.6571e-09
1.80164e-05
4.56855e-08
1.80061e-05
6.55978e-09
1.80032e-05
-4.56323e-09
1.80079e-05
3.36748e-08
1.80037e-05
3.39131e-08
1.79992e-05
1.74436e-08
1.80013e-05
2.82735e-08
1.80008e-05
4.14566e-08
1.79962e-05
3.74652e-08
1.79944e-05
3.39233e-08
1.79965e-05
4.03357e-08
1.7998e-05
4.71107e-08
1.79973e-05
4.60939e-08
1.79972e-05
4.24283e-08
4.20514e-08
1.79986e-05
1.94463e-05
-1.91473e-08
1.9447e-05
-1.05688e-08
1.94558e-05
3.58133e-08
1.94458e-05
-4.67974e-09
1.94458e-05
-2.73522e-09
1.94535e-05
3.80197e-08
1.94457e-05
1.4346e-08
1.94409e-05
2.23715e-10
1.94452e-05
2.93881e-08
1.94431e-05
3.60561e-08
1.94379e-05
2.26133e-08
1.94385e-05
2.76781e-08
1.94395e-05
4.04785e-08
1.94366e-05
4.03872e-08
1.94341e-05
3.63315e-08
1.94353e-05
3.9188e-08
1.94375e-05
4.49246e-08
1.94378e-05
4.57566e-08
1.94377e-05
4.25858e-08
4.10131e-08
1.94387e-05
2.10006e-05
-1.39864e-08
2.1e-05
-9.92304e-09
2.10078e-05
2.80454e-08
2.10004e-05
2.73422e-09
2.09985e-05
-8.83475e-10
2.10052e-05
3.13379e-08
2.09999e-05
1.96099e-08
2.09942e-05
5.91778e-09
2.09973e-05
2.63381e-08
2.09969e-05
3.64354e-08
2.09921e-05
2.73754e-08
2.09913e-05
2.85051e-08
2.09928e-05
3.89926e-08
2.09916e-05
4.16257e-08
2.09894e-05
3.84955e-08
2.09897e-05
3.89082e-08
2.09918e-05
4.27916e-08
2.09931e-05
4.44751e-08
2.09933e-05
4.23442e-08
4.01986e-08
2.09941e-05
2.26788e-05
-9.91203e-09
2.26773e-05
-8.36313e-09
2.26837e-05
2.16335e-08
2.26786e-05
7.80711e-09
2.26757e-05
2.08924e-09
2.26809e-05
2.61135e-08
2.26778e-05
2.27218e-08
2.26721e-05
1.16044e-08
2.26736e-05
2.47994e-08
2.26744e-05
3.57024e-08
2.26707e-05
3.10456e-08
2.2669e-05
3.02171e-08
2.26703e-05
3.771e-08
2.26703e-05
4.15745e-08
2.26689e-05
3.98776e-08
2.26688e-05
3.90663e-08
2.26705e-05
4.10799e-08
2.26723e-05
4.26711e-08
2.26731e-05
4.1488e-08
3.93474e-08
2.2674e-05
2.44908e-05
-6.76144e-09
2.44887e-05
-6.28973e-09
2.44937e-05
1.67033e-08
2.44905e-05
1.09785e-08
2.44871e-05
5.47837e-09
2.44907e-05
2.25158e-08
2.44892e-05
2.42223e-08
2.44842e-05
1.66034e-08
2.44844e-05
2.45963e-08
2.44856e-05
3.4528e-08
2.44832e-05
3.34103e-08
2.44813e-05
3.21488e-08
2.44821e-05
3.691e-08
2.44829e-05
4.07544e-08
2.44824e-05
4.03233e-08
2.44823e-05
3.92113e-08
2.44836e-05
3.97788e-08
2.44855e-05
4.07511e-08
2.44869e-05
4.00943e-08
3.82442e-08
2.4488e-05
2.64472e-05
-4.3649e-09
2.64449e-05
-4.03179e-09
2.64484e-05
1.32125e-08
2.64466e-05
1.27486e-08
2.64434e-05
8.75183e-09
2.64455e-05
2.0413e-08
2.6445e-05
2.46909e-08
2.6441e-05
2.0554e-08
2.64404e-05
2.52829e-08
2.64415e-05
3.34019e-08
2.64403e-05
3.45969e-08
2.64387e-05
3.37646e-08
2.64391e-05
3.65037e-08
2.64402e-05
3.96209e-08
2.64406e-05
3.9961e-08
2.64408e-05
3.9005e-08
2.64419e-05
3.86999e-08
2.64437e-05
3.89182e-08
2.64454e-05
3.83691e-08
3.68222e-08
2.64468e-05
2.85595e-05
-2.56266e-09
2.85573e-05
-1.82797e-09
2.85595e-05
1.09822e-08
2.85587e-05
1.36001e-08
2.85559e-05
1.15712e-08
2.85568e-05
1.94775e-08
2.85569e-05
2.46334e-08
2.85541e-05
2.3363e-08
2.8553e-05
2.63534e-08
2.85538e-05
3.25487e-08
2.85535e-05
3.48897e-08
2.85525e-05
3.47646e-08
2.85528e-05
3.62412e-08
2.8554e-05
3.84282e-08
2.85549e-05
3.90258e-08
2.85556e-05
3.8321e-08
2.85567e-05
3.75989e-08
2.85584e-05
3.71937e-08
2.85603e-05
3.64964e-08
3.51318e-08
2.8562e-05
3.08403e-05
-1.21292e-09
3.08383e-05
1.64656e-10
3.08396e-05
9.75682e-09
3.08392e-05
1.39298e-08
3.0837e-05
1.37753e-08
3.08372e-05
1.93099e-08
3.08374e-05
2.43888e-08
3.08357e-05
2.51255e-08
3.08346e-05
2.73849e-08
3.08352e-05
3.19537e-08
3.08355e-05
3.45877e-08
3.08352e-05
3.50581e-08
3.08356e-05
3.58859e-08
3.08368e-05
3.72287e-08
3.08381e-05
3.77276e-08
3.08392e-05
3.71854e-08
3.08405e-05
3.63066e-08
3.08422e-05
3.54963e-08
3.08442e-05
3.45738e-08
3.32629e-08
3.0846e-05
3.33031e-05
-2.03953e-10
3.33014e-05
1.87059e-09
3.33019e-05
9.2492e-09
3.33018e-05
1.40114e-08
3.33002e-05
1.53406e-08
3.33e-05
1.95287e-08
3.33003e-05
2.4112e-08
3.32994e-05
2.60356e-08
3.32987e-05
2.80943e-08
3.32992e-05
3.14654e-08
3.32999e-05
3.39028e-08
3.33002e-05
3.47127e-08
3.33008e-05
3.52581e-08
3.33021e-05
3.59622e-08
3.33036e-05
3.61959e-08
3.33051e-05
3.56874e-08
3.33067e-05
3.47588e-08
3.33084e-05
3.37286e-08
3.33104e-05
3.26164e-08
3.12867e-08
3.33124e-05
3.59624e-05
5.57531e-10
3.5961e-05
3.25172e-09
3.5961e-05
9.19066e-09
3.59611e-05
1.3993e-08
3.59601e-05
1.63285e-08
3.59598e-05
1.98226e-08
3.59601e-05
2.38163e-08
3.59598e-05
2.62912e-08
3.59596e-05
2.83373e-08
3.59601e-05
3.08991e-08
3.59611e-05
3.29361e-08
3.5962e-05
3.38547e-08
3.5963e-05
3.42614e-08
3.59644e-05
3.45371e-08
3.59661e-05
3.44817e-08
3.59679e-05
3.39141e-08
3.59697e-05
3.29603e-08
3.59716e-05
3.18278e-08
3.59736e-05
3.05993e-08
2.9238e-08
3.59756e-05
3.88339e-05
1.12357e-09
3.88328e-05
4.31625e-09
3.88327e-05
9.34923e-09
3.88327e-05
1.3923e-08
3.88322e-05
1.68256e-08
3.88321e-05
1.99734e-08
3.88325e-05
2.34329e-08
3.88327e-05
2.60398e-08
3.8833e-05
2.80712e-08
3.88338e-05
3.00982e-08
3.8835e-05
3.1717e-08
3.88363e-05
3.25802e-08
3.88377e-05
3.28783e-08
3.88393e-05
3.28809e-08
3.88412e-05
3.25858e-08
3.88432e-05
3.19219e-08
3.88452e-05
3.09422e-08
3.88473e-05
2.97716e-08
3.88494e-05
2.84948e-08
2.71239e-08
3.88515e-05
4.19346e-05
1.53349e-09
4.19339e-05
5.0802e-09
4.19337e-05
9.5406e-09
4.19338e-05
1.378e-08
4.19337e-05
1.69046e-08
4.19339e-05
1.98466e-08
4.19344e-05
2.28637e-08
4.19351e-05
2.53643e-08
4.19359e-05
2.73071e-08
4.1937e-05
2.89601e-08
4.19385e-05
3.02333e-08
4.19401e-05
3.0944e-08
4.19419e-05
3.11289e-08
4.19438e-05
3.09555e-08
4.19459e-05
3.049e-08
4.19481e-05
2.9737e-08
4.19503e-05
2.87348e-08
4.19525e-05
2.7562e-08
4.19547e-05
2.62875e-08
2.49395e-08
4.19569e-05
4.52829e-05
1.81048e-09
4.52824e-05
5.56055e-09
4.52823e-05
9.6288e-09
4.52826e-05
1.35043e-08
4.52829e-05
1.66091e-08
4.52834e-05
1.93671e-08
4.52842e-05
2.20176e-08
4.52853e-05
2.42942e-08
4.52865e-05
2.60707e-08
4.5288e-05
2.74446e-08
4.52898e-05
2.84443e-08
4.52918e-05
2.89731e-08
4.52939e-05
2.90409e-08
4.52961e-05
2.875e-08
4.52984e-05
2.81777e-08
4.53008e-05
2.73664e-08
4.53031e-05
2.63579e-08
4.53055e-05
2.52089e-08
4.53078e-05
2.39729e-08
2.26794e-08
4.53101e-05
4.88984e-05
1.96709e-09
4.88982e-05
5.76933e-09
4.88983e-05
9.51804e-09
4.88988e-05
1.30236e-08
4.88995e-05
1.5952e-08
4.89004e-05
1.8495e-08
4.89016e-05
2.08237e-08
4.8903e-05
2.2829e-08
4.89047e-05
2.43872e-08
4.89066e-05
2.55395e-08
4.89087e-05
2.63147e-08
4.8911e-05
2.66744e-08
4.89134e-05
2.66351e-08
4.89159e-05
2.62668e-08
4.89185e-05
2.564e-08
4.8921e-05
2.48094e-08
4.89236e-05
2.38204e-08
4.8926e-05
2.27201e-08
4.89285e-05
2.15512e-08
2.03394e-08
4.89308e-05
5.28027e-05
2.00883e-09
5.28027e-05
5.71228e-09
5.28031e-05
9.14274e-09
5.28039e-05
1.22694e-08
5.28049e-05
1.4924e-08
5.28062e-05
1.72073e-08
5.28078e-05
1.92323e-08
5.28096e-05
2.09544e-08
5.28117e-05
2.22797e-08
5.2814e-05
2.32364e-08
5.28165e-05
2.3826e-08
5.28192e-05
2.40461e-08
5.28219e-05
2.39227e-08
5.28246e-05
2.35116e-08
5.28274e-05
2.28736e-08
5.28301e-05
2.20628e-08
5.28328e-05
2.11243e-08
5.28355e-05
2.00991e-08
5.2838e-05
1.90223e-08
1.79156e-08
5.28404e-05
5.70186e-05
1.93723e-09
5.70189e-05
5.38988e-09
5.70196e-05
8.45845e-09
5.70207e-05
1.11859e-08
5.70221e-05
1.3505e-08
5.70238e-05
1.54892e-08
5.70258e-05
1.72118e-08
5.70281e-05
1.86558e-08
5.70307e-05
1.97585e-08
5.70334e-05
2.0531e-08
5.70362e-05
2.0969e-08
5.70392e-05
2.1084e-08
5.70422e-05
2.09071e-08
5.70452e-05
2.04866e-08
5.70482e-05
1.98746e-08
5.70512e-05
1.91205e-08
5.7054e-05
1.82653e-08
5.70568e-05
1.73443e-08
5.70594e-05
1.63858e-08
1.54059e-08
5.70619e-05
6.15711e-05
1.75219e-09
6.15717e-05
4.80015e-09
6.15727e-05
7.43638e-09
6.15742e-05
9.73083e-09
6.1576e-05
1.16736e-08
6.15782e-05
1.33296e-08
6.15806e-05
1.47467e-08
6.15834e-05
1.59196e-08
6.15863e-05
1.68162e-08
6.15894e-05
1.7422e-08
6.15927e-05
1.77381e-08
6.1596e-05
1.77829e-08
6.15993e-05
1.7587e-08
6.16026e-05
1.71914e-08
6.16058e-05
1.66395e-08
6.1609e-05
1.59728e-08
6.1612e-05
1.52277e-08
6.16149e-05
1.44364e-08
6.16177e-05
1.36263e-08
1.28203e-08
6.16202e-05
6.64871e-05
1.45972e-09
6.6488e-05
3.93863e-09
6.64893e-05
6.06125e-09
6.64912e-05
7.88219e-09
6.64934e-05
9.41893e-09
6.6496e-05
1.07262e-08
6.64989e-05
1.18364e-08
6.65021e-05
1.27472e-08
6.65055e-05
1.34381e-08
6.6509e-05
1.38955e-08
6.65126e-05
1.41203e-08
6.65163e-05
1.41293e-08
6.65199e-05
1.39495e-08
6.65235e-05
1.36147e-08
6.6527e-05
1.31597e-08
6.65303e-05
1.26171e-08
6.65336e-05
1.20148e-08
6.65366e-05
1.13761e-08
6.65395e-05
1.07197e-08
1.00567e-08
6.65423e-05
7.17956e-05
1.07021e-09
7.17967e-05
2.83614e-09
7.17984e-05
4.34502e-09
7.18006e-05
5.65033e-09
7.18033e-05
6.76222e-09
7.18063e-05
7.70875e-09
7.18096e-05
8.50642e-09
7.18132e-05
9.15554e-09
7.1817e-05
9.64467e-09
7.18209e-05
9.96546e-09
7.18249e-05
1.01183e-08
7.18289e-05
1.01161e-08
7.18329e-05
9.97951e-09
7.18368e-05
9.73419e-09
7.18405e-05
9.40536e-09
7.18441e-05
9.01653e-09
7.18476e-05
8.58749e-09
7.18508e-05
8.13471e-09
7.18539e-05
7.67098e-09
7.20917e-09
7.18567e-05
7.75279e-05
7.75294e-05
7.75314e-05
7.75341e-05
7.75372e-05
7.75408e-05
7.75446e-05
7.75487e-05
7.7553e-05
7.75574e-05
7.75618e-05
7.75662e-05
7.75705e-05
7.75747e-05
7.75788e-05
7.75827e-05
7.75863e-05
7.75898e-05
7.75931e-05
7.75961e-05
3.76821e-06
6.00244e-08
3.67742e-06
9.07911e-08
3.58181e-06
9.56056e-08
3.48834e-06
9.34702e-08
3.39305e-06
9.52919e-08
3.29379e-06
9.92581e-08
3.19023e-06
1.03566e-07
3.08332e-06
1.06905e-07
2.97912e-06
1.04203e-07
2.87717e-06
1.01949e-07
2.77017e-06
1.06999e-07
2.65903e-06
1.11144e-07
2.54762e-06
1.11402e-07
2.43477e-06
1.12856e-07
2.3206e-06
1.14168e-07
2.20687e-06
1.1373e-07
2.09268e-06
1.14191e-07
1.97821e-06
1.14472e-07
1.86685e-06
1.11363e-07
1.76047e-06
1.06375e-07
1.66072e-06
9.97554e-08
1.57621e-06
8.45078e-08
1.51956e-06
5.66506e-08
1.49475e-06
2.48052e-08
1.49295e-06
1.79837e-09
1.50025e-06
-7.29712e-09
1.50777e-06
-7.51869e-09
1.51302e-06
-5.25264e-09
1.5167e-06
-3.67372e-09
1.5196e-06
-2.90669e-09
1.52205e-06
-2.44414e-09
1.52409e-06
-2.0416e-09
1.52575e-06
-1.66125e-09
1.52704e-06
-1.29276e-09
1.52799e-06
-9.43767e-10
1.52863e-06
-6.42452e-10
1.52904e-06
-4.12583e-10
1.5293e-06
-2.56106e-10
1.52946e-06
-1.58764e-10
1.52956e-06
-1.02289e-10
1.52963e-06
-7.09763e-11
1.52968e-06
-5.37592e-11
1.52973e-06
-4.33065e-11
1.52976e-06
-3.62261e-11
1.52979e-06
-3.08176e-11
1.52982e-06
-2.62874e-11
1.52984e-06
-2.24071e-11
1.52986e-06
-1.90487e-11
1.52988e-06
-1.61596e-11
1.52989e-06
-1.3698e-11
1.5299e-06
-1.15808e-11
1.52991e-06
-9.76578e-12
1.52992e-06
-8.22407e-12
1.52993e-06
-6.91775e-12
1.52993e-06
-5.81201e-12
1.52994e-06
-4.86516e-12
1.52994e-06
-4.05369e-12
1.52995e-06
-3.37536e-12
1.52995e-06
-2.79904e-12
1.52995e-06
-2.31588e-12
1.52995e-06
-1.90966e-12
1.52995e-06
-1.55853e-12
1.52995e-06
-1.25783e-12
1.52996e-06
-1.00666e-12
1.52996e-06
-8.00619e-13
1.52996e-06
-6.39082e-13
1.52996e-06
-5.13761e-13
1.52996e-06
-4.00529e-13
1.52996e-06
-2.96143e-13
1.52996e-06
-2.11014e-13
1.52996e-06
-1.47132e-13
1.52996e-06
-1.01272e-13
1.52996e-06
-6.53021e-14
1.52996e-06
-2.01661e-14
1.52996e-06
2.9797e-15
1.52996e-06
3.91506e-14
1.52996e-06
2.45767e-14
1.52996e-06
1.10368e-13
1.52996e-06
-5.4886e-15
1.52996e-06
3.15183e-13
1.52996e-06
-2.3106e-13
1.52996e-06
8.95184e-13
1.52996e-06
-1.11929e-12
1.52996e-06
2.69916e-12
1.52996e-06
-3.87608e-12
1.52995e-06
7.61437e-12
1.52996e-06
-1.09228e-11
1.52995e-06
1.85234e-11
1.52997e-06
-2.43487e-11
1.52993e-06
3.56032e-11
1.52997e-06
-3.80151e-11
1.52993e-06
4.5025e-11
1.52995e-06
-2.17306e-11
1.52994e-06
1.12896e-11
1.52986e-06
8.01825e-11
1.52993e-06
-7.4661e-11
1.52965e-06
2.82064e-10
1.52969e-06
-4.14473e-11
1.52935e-06
3.41312e-10
1.11669e-09
4.1611e-06
5.08435e-08
4.16814e-06
8.37559e-08
4.16451e-06
9.92315e-08
4.15712e-06
1.00867e-07
4.14834e-06
1.04073e-07
4.13701e-06
1.10586e-07
4.12276e-06
1.1781e-07
4.10447e-06
1.25196e-07
4.08375e-06
1.24928e-07
4.06242e-06
1.23273e-07
4.03751e-06
1.31916e-07
4.00823e-06
1.40424e-07
3.97644e-06
1.43186e-07
3.94089e-06
1.48404e-07
3.90133e-06
1.53732e-07
3.85963e-06
1.55425e-07
3.81492e-06
1.58907e-07
3.76627e-06
1.63117e-07
3.71615e-06
1.6149e-07
3.66581e-06
1.56715e-07
3.61462e-06
1.50941e-07
3.56606e-06
1.33068e-07
3.52762e-06
9.50925e-08
3.50345e-06
4.89745e-08
3.49102e-06
1.42268e-08
3.48504e-06
-1.31291e-09
3.48148e-06
-3.96153e-09
3.47923e-06
-3.00922e-09
3.47879e-06
-3.2243e-09
3.4809e-06
-5.01711e-09
3.48581e-06
-7.35522e-09
3.49298e-06
-9.20977e-09
3.50128e-06
-9.96975e-09
3.50948e-06
-9.4853e-09
3.51657e-06
-8.03641e-09
3.52206e-06
-6.1333e-09
3.52591e-06
-4.26025e-09
3.52837e-06
-2.71796e-09
3.52982e-06
-1.60642e-09
3.5306e-06
-8.88539e-10
3.531e-06
-4.66493e-10
3.53118e-06
-2.37743e-10
3.53126e-06
-1.20775e-10
3.53129e-06
-6.33539e-11
3.53129e-06
-3.52598e-11
3.53129e-06
-2.07357e-11
3.53128e-06
-1.24761e-11
3.53126e-06
-7.21373e-12
3.53125e-06
-3.57482e-12
3.53124e-06
-9.53918e-13
3.53123e-06
9.9341e-13
3.53121e-06
2.41609e-12
3.5312e-06
3.42381e-12
3.53119e-06
4.09942e-12
3.53118e-06
4.5174e-12
3.53117e-06
4.76111e-12
3.53116e-06
4.85736e-12
3.53115e-06
4.82211e-12
3.53115e-06
4.71197e-12
3.53114e-06
4.53009e-12
3.53113e-06
4.30689e-12
3.53113e-06
4.06747e-12
3.53112e-06
3.81399e-12
3.53112e-06
3.54792e-12
3.53111e-06
3.27789e-12
3.53111e-06
2.99442e-12
3.53111e-06
2.70829e-12
3.5311e-06
2.45494e-12
3.5311e-06
2.22965e-12
3.5311e-06
2.01731e-12
3.5311e-06
1.81015e-12
3.5311e-06
1.60872e-12
3.5311e-06
1.42657e-12
3.53109e-06
1.28567e-12
3.53109e-06
1.1422e-12
3.53109e-06
1.03159e-12
3.53109e-06
8.90748e-13
3.53109e-06
8.68261e-13
3.53109e-06
6.72422e-13
3.53109e-06
9.27293e-13
3.53109e-06
3.32963e-13
3.53109e-06
1.42135e-12
3.53109e-06
-5.88285e-13
3.53109e-06
3.23174e-12
3.53109e-06
-3.29347e-12
3.53109e-06
8.37158e-12
3.53108e-06
-1.04208e-11
3.53108e-06
2.03856e-11
3.53108e-06
-2.50388e-11
3.53108e-06
4.15036e-11
3.53108e-06
-4.24729e-11
3.53107e-06
5.85872e-11
3.53107e-06
-2.3101e-11
3.53106e-06
1.67632e-11
3.531e-06
1.39905e-10
3.53106e-06
-1.28192e-10
3.53085e-06
4.91058e-10
3.53085e-06
-4.57806e-11
3.53066e-06
5.36907e-10
1.68512e-09
4.4951e-06
4.83138e-08
4.50377e-06
7.50893e-08
4.50842e-06
9.4579e-08
4.50886e-06
1.00427e-07
4.5084e-06
1.04533e-07
4.5088e-06
1.1018e-07
4.51026e-06
1.16357e-07
4.51105e-06
1.24402e-07
4.50989e-06
1.26093e-07
4.50826e-06
1.249e-07
4.50671e-06
1.33463e-07
4.50445e-06
1.42688e-07
4.50138e-06
1.46252e-07
4.49716e-06
1.52627e-07
4.49159e-06
1.59302e-07
4.48511e-06
1.61907e-07
4.4777e-06
1.66316e-07
4.46915e-06
1.71666e-07
4.45979e-06
1.70856e-07
4.44983e-06
1.6667e-07
4.43888e-06
1.61892e-07
4.42723e-06
1.44722e-07
4.41623e-06
1.06093e-07
4.40714e-06
5.80588e-08
4.40032e-06
2.10477e-08
4.39557e-06
3.44024e-09
4.39238e-06
-7.76176e-10
4.39037e-06
-1.00068e-09
4.38943e-06
-2.28485e-09
4.38978e-06
-5.36433e-09
4.39159e-06
-9.16223e-09
4.39472e-06
-1.23376e-08
4.39867e-06
-1.39287e-08
4.40281e-06
-1.36218e-08
4.40654e-06
-1.1768e-08
4.40951e-06
-9.10465e-09
4.41163e-06
-6.37343e-09
4.41298e-06
-4.06673e-09
4.41375e-06
-2.37634e-09
4.41413e-06
-1.27368e-09
4.41429e-06
-6.23269e-10
4.41432e-06
-2.72805e-10
4.4143e-06
-9.72782e-11
4.41425e-06
-1.52108e-11
4.4142e-06
2.10404e-11
4.41414e-06
3.64606e-11
4.41408e-06
4.26115e-11
4.41403e-06
4.46197e-11
4.41398e-06
4.46192e-11
4.41394e-06
4.35339e-11
4.4139e-06
4.18449e-11
4.41386e-06
3.97684e-11
4.41383e-06
3.74495e-11
4.4138e-06
3.49915e-11
4.41377e-06
3.2478e-11
4.41374e-06
3.00041e-11
4.41372e-06
2.75826e-11
4.4137e-06
2.52239e-11
4.41368e-06
2.29898e-11
4.41366e-06
2.086e-11
4.41365e-06
1.88629e-11
4.41364e-06
1.70105e-11
4.41363e-06
1.52913e-11
4.41362e-06
1.36997e-11
4.41361e-06
1.22383e-11
4.4136e-06
1.08795e-11
4.41359e-06
9.62696e-12
4.41359e-06
8.51306e-12
4.41358e-06
7.5195e-12
4.41358e-06
6.62502e-12
4.41357e-06
5.81114e-12
4.41357e-06
5.07139e-12
4.41356e-06
4.41649e-12
4.41356e-06
3.86352e-12
4.41356e-06
3.36138e-12
4.41356e-06
2.93519e-12
4.41356e-06
2.53065e-12
4.41356e-06
2.26379e-12
4.41355e-06
1.90515e-12
4.41355e-06
1.94379e-12
4.41355e-06
1.33554e-12
4.41355e-06
2.09752e-12
4.41355e-06
4.63865e-13
4.41355e-06
3.4143e-12
4.41355e-06
-1.58956e-12
4.41355e-06
7.44195e-12
4.41355e-06
-6.76018e-12
4.41355e-06
1.69556e-11
4.41354e-06
-1.71742e-11
4.41355e-06
3.38702e-11
4.41353e-06
-2.80234e-11
4.41355e-06
4.66275e-11
4.41352e-06
6.60411e-13
4.41354e-06
1.52231e-12
4.41349e-06
1.85267e-10
4.4135e-06
-1.40003e-10
4.41343e-06
5.69814e-10
4.41335e-06
3.16375e-11
4.41329e-06
5.9102e-10
1.87158e-09
4.85624e-06
4.81459e-08
4.86202e-06
6.93086e-08
4.86817e-06
8.84312e-08
4.87042e-06
9.81719e-08
4.87041e-06
1.04551e-07
4.87086e-06
1.09725e-07
4.87307e-06
1.14151e-07
4.8761e-06
1.21373e-07
4.87793e-06
1.24257e-07
4.87905e-06
1.23781e-07
4.88061e-06
1.31905e-07
4.88238e-06
1.40912e-07
4.88409e-06
1.4455e-07
4.88578e-06
1.50932e-07
4.88746e-06
1.57618e-07
4.88915e-06
1.60224e-07
4.89093e-06
1.64531e-07
4.89298e-06
1.69618e-07
4.89526e-06
1.68575e-07
4.8975e-06
1.64429e-07
4.89946e-06
1.59931e-07
4.90054e-06
1.43641e-07
4.89979e-06
1.06847e-07
4.89683e-06
6.10209e-08
4.89251e-06
2.53655e-08
4.88841e-06
7.54122e-09
4.88536e-06
2.27504e-09
4.88332e-06
1.04166e-09
4.88201e-06
-9.79868e-10
4.88114e-06
-4.49617e-09
4.8806e-06
-8.61588e-09
4.88032e-06
-1.20599e-08
4.88027e-06
-1.38775e-08
4.88039e-06
-1.37456e-08
4.88063e-06
-1.20021e-08
4.8809e-06
-9.37771e-09
4.88115e-06
-6.62364e-09
4.88134e-06
-4.25427e-09
4.88145e-06
-2.48676e-09
4.88149e-06
-1.31251e-09
4.88147e-06
-6.06553e-10
4.88142e-06
-2.19241e-10
4.88134e-06
-2.23524e-11
4.88126e-06
6.94523e-11
4.88117e-06
1.08001e-10
4.88108e-06
1.21246e-10
4.881e-06
1.229e-10
4.88093e-06
1.19342e-10
4.88086e-06
1.13429e-10
4.8808e-06
1.06466e-10
4.88074e-06
9.91293e-11
4.88069e-06
9.17254e-11
4.88064e-06
8.44337e-11
4.8806e-06
7.73711e-11
4.88056e-06
7.06124e-11
4.88053e-06
6.42464e-11
4.8805e-06
5.8262e-11
4.88047e-06
5.2648e-11
4.88044e-06
4.74598e-11
4.88042e-06
4.26428e-11
4.8804e-06
3.82126e-11
4.88039e-06
3.41602e-11
4.88037e-06
3.04539e-11
4.88036e-06
2.70742e-11
4.88035e-06
2.40115e-11
4.88033e-06
2.12155e-11
4.88033e-06
1.86769e-11
4.88032e-06
1.64187e-11
4.88031e-06
1.44059e-11
4.88031e-06
1.26092e-11
4.8803e-06
1.09959e-11
4.8803e-06
9.55044e-12
4.88029e-06
8.27599e-12
4.88029e-06
7.182e-12
4.88029e-06
6.2097e-12
4.88028e-06
5.3727e-12
4.88028e-06
4.62031e-12
4.88028e-06
4.04055e-12
4.88028e-06
3.45102e-12
4.88028e-06
3.23063e-12
4.88028e-06
2.54344e-12
4.88027e-06
2.97932e-12
4.88027e-06
1.6208e-12
4.88027e-06
3.78772e-12
4.88027e-06
1.01978e-13
4.88027e-06
6.71768e-12
4.88027e-06
-3.15188e-12
4.88027e-06
1.34765e-11
4.88026e-06
-8.68149e-12
4.88027e-06
2.44266e-11
4.88025e-06
-9.8526e-12
4.88027e-06
2.79803e-11
4.88024e-06
3.2495e-11
4.88026e-06
-2.15923e-11
4.88022e-06
2.25649e-10
4.88022e-06
-1.34703e-10
4.88019e-06
5.94424e-10
4.88009e-06
1.3947e-10
4.88008e-06
5.95336e-10
1.93227e-09
5.2466e-06
4.82776e-08
5.25026e-06
6.56519e-08
5.25577e-06
8.29239e-08
5.25942e-06
9.45148e-08
5.26049e-06
1.03483e-07
5.2608e-06
1.09418e-07
5.26248e-06
1.12472e-07
5.26551e-06
1.18343e-07
5.26784e-06
1.21927e-07
5.26949e-06
1.22125e-07
5.27146e-06
1.29937e-07
5.27371e-06
1.38663e-07
5.276e-06
1.42263e-07
5.27838e-06
1.48553e-07
5.28105e-06
1.54944e-07
5.2841e-06
1.57175e-07
5.2874e-06
1.61229e-07
5.29116e-06
1.6586e-07
5.29546e-06
1.6428e-07
5.29998e-06
1.59906e-07
5.30443e-06
1.55484e-07
5.30809e-06
1.39978e-07
5.30956e-06
1.05375e-07
5.30804e-06
6.25436e-08
5.30443e-06
2.8976e-08