/*--------------------------------*- C++ -*----------------------------------*\
| =========                 |                                                 |
| \\      /  F ield         | OpenFOAM: The Open Source CFD Toolbox           |
|  \\    /   O peration     | Version:  v1906                                 |
|   \\  /    A nd           | Web:      www.OpenFOAM.com                      |
|    \\/     M anipulation  |                                                 |
\*---------------------------------------------------------------------------*/
FoamFile
{
    version     2.0;
    format      ascii;
    class       volVectorField;
    location    "0.1";
    object      U;
}
// * * * * * * * * * * * * * * * * * * * * * * * * * * * * * * * * * * * * * //

dimensions      [0 1 -1 0 0 0 0];


internalField   nonuniform List<vector> 
4800
(
(0.983957 -0.00238949 0)
(1.03411 0.00305999 0)
(0.958547 -2.6631e-05 0)
(1.04251 -0.00298817 0)
(0.965748 0.00271286 0)
(1.02801 0.000909049 0)
(0.969547 -0.00132607 0)
(1.02888 -0.00231569 0)
(0.973579 0.00117275 0)
(1.02408 0.00149094 0)
(0.973404 0.00124019 0)
(1.01939 -0.00134743 0)
(0.977721 -0.00131956 0)
(1.01875 -0.0017619 0)
(0.979374 0.000415725 0)
(1.01457 0.000485776 0)
(0.980841 0.00176762 0)
(1.01074 0.000999357 0)
(0.980466 0.00111756 0)
(1.00739 0.000439315 0)
(0.993192 -0.00287869 0)
(1.013 0.0037599 0)
(0.98653 -0.000284446 0)
(1.01511 -0.00321195 0)
(0.987675 0.00315128 0)
(1.00855 0.000984799 0)
(0.993261 -0.00159684 0)
(1.00513 -0.00239891 0)
(0.993185 0.00138215 0)
(1.00394 0.00166421 0)
(0.995357 0.0013046 0)
(1.00149 -0.00147929 0)
(0.996259 -0.00141667 0)
(0.999974 -0.00180309 0)
(0.995245 0.000577279 0)
(0.997649 0.000581445 0)
(0.996172 0.00197885 0)
(0.997155 0.00131887 0)
(0.995642 0.00167932 0)
(0.995602 0.00137976 0)
(0.998262 -0.00269743 0)
(1.00105 0.00342282 0)
(0.999441 -7.18615e-05 0)
(1.00235 -0.00313371 0)
(0.995508 0.00303471 0)
(1.003 0.000853868 0)
(1.00062 -0.00140357 0)
(0.998321 -0.00217733 0)
(0.997247 0.00119843 0)
(1.00019 0.00155199 0)
(0.999873 0.00111769 0)
(0.999793 -0.00109636 0)
(0.998848 -0.00144619 0)
(0.997714 -0.00129815 0)
(0.996326 0.000150364 0)
(0.996405 0.000955813 0)
(0.997027 0.00149925 0)
(0.997417 0.00176351 0)
(0.997152 0.00176498 0)
(0.996589 0.00193663 0)
(0.999536 -0.00266915 0)
(0.998058 0.00329152 0)
(1.00194 3.11228e-05 0)
(0.999807 -0.00314169 0)
(0.996653 0.0030488 0)
(1.00225 0.000761772 0)
(1.00158 -0.00132193 0)
(0.997482 -0.00210281 0)
(0.997589 0.00118683 0)
(0.999875 0.00149246 0)
(1.00027 0.00103382 0)
(0.999755 -0.000945957 0)
(0.99903 -0.0014513 0)
(0.997598 -0.00107256 0)
(0.996387 9.11779e-05 0)
(0.996392 0.00106988 0)
(0.997088 0.00151385 0)
(0.997571 0.00193857 0)
(0.997448 0.00193975 0)
(0.996938 0.00201788 0)
(0.99975 -0.00250906 0)
(0.997664 0.0030266 0)
(1.00208 0.000136427 0)
(0.999607 -0.00298246 0)
(0.996808 0.00285921 0)
(1.00205 0.000685352 0)
(1.00157 -0.00122939 0)
(0.997515 -0.00178191 0)
(0.997711 0.000977431 0)
(0.999827 0.001448 0)
(1.00017 0.000788153 0)
(0.999645 -0.000624498 0)
(0.99905 -0.00139031 0)
(0.997687 -0.000749275 0)
(0.9965 0.000101935 0)
(0.996498 0.0010112 0)
(0.997163 0.0016085 0)
(0.997603 0.00193838 0)
(0.997495 0.00199253 0)
(0.997102 0.00218182 0)
(0.999799 -0.00238129 0)
(0.997697 0.00276644 0)
(1.00191 0.000308195 0)
(0.99969 -0.00297071 0)
(0.996932 0.00277796 0)
(1.00188 0.000623329 0)
(1.00147 -0.00114445 0)
(0.997613 -0.00158808 0)
(0.997871 0.000800623 0)
(0.999816 0.00145111 0)
(1.00005 0.000627868 0)
(0.999499 -0.000387911 0)
(0.999033 -0.00130107 0)
(0.997805 -0.000639016 0)
(0.996651 0.000234829 0)
(0.996649 0.000981794 0)
(0.997266 0.00164984 0)
(0.997653 0.00200893 0)
(0.997539 0.00212802 0)
(0.997211 0.00230681 0)
(0.999833 -0.00224174 0)
(0.997777 0.00253483 0)
(1.00172 0.000399948 0)
(0.999802 -0.00285463 0)
(0.997064 0.00266015 0)
(1.0017 0.000552484 0)
(1.00137 -0.00110246 0)
(0.997725 -0.00129188 0)
(0.998036 0.000635889 0)
(0.999792 0.00142532 0)
(0.999926 0.000452503 0)
(0.99937 -0.000235987 0)
(0.999024 -0.00106563 0)
(0.997952 -0.000552492 0)
(0.996797 0.000448917 0)
(0.996781 0.000983945 0)
(0.997388 0.00160932 0)
(0.997715 0.00206934 0)
(0.997573 0.00221261 0)
(0.997291 0.00234661 0)
(0.999863 -0.00208706 0)
(0.997868 0.00225475 0)
(1.00152 0.000547723 0)
(0.999905 -0.00276216 0)
(0.9972 0.00248633 0)
(1.00153 0.000547622 0)
(1.00129 -0.00106068 0)
(0.997817 -0.00101749 0)
(0.998195 0.000427171 0)
(0.999781 0.00138614 0)
(0.999814 0.000388752 0)
(0.999263 -0.000155623 0)
(0.998989 -0.000771708 0)
(0.99809 -0.000531036 0)
(0.996958 0.000552384 0)
(0.996905 0.00110108 0)
(0.997526 0.00155989 0)
(0.997809 0.00207508 0)
(0.997619 0.00229785 0)
(0.997377 0.00243896 0)
(0.999893 -0.00193757 0)
(0.997969 0.00199809 0)
(1.00133 0.000669125 0)
(1.00001 -0.00267568 0)
(0.997348 0.00235463 0)
(1.00134 0.000548598 0)
(1.00121 -0.00108929 0)
(0.997913 -0.000729473 0)
(0.998349 0.000294764 0)
(0.999774 0.00130651 0)
(0.999688 0.000383534 0)
(0.999174 -0.000168433 0)
(0.998962 -0.000481634 0)
(0.998226 -0.000422333 0)
(0.997149 0.000574018 0)
(0.99702 0.00125665 0)
(0.99764 0.00156657 0)
(0.99792 0.00200607 0)
(0.997685 0.00233358 0)
(0.997451 0.00251665 0)
(0.99992 -0.00177854 0)
(0.998078 0.00173193 0)
(1.00113 0.000781325 0)
(1.0001 -0.00254431 0)
(0.997499 0.00216358 0)
(1.00115 0.000572783 0)
(1.00115 -0.00109331 0)
(0.998001 -0.000451344 0)
(0.998484 0.000172561 0)
(0.999782 0.0011489 0)
(0.999568 0.000464721 0)
(0.999107 -0.000174703 0)
(0.998943 -0.000231514 0)
(0.998326 -0.000236447 0)
(0.997351 0.0005382 0)
(0.997156 0.00133486 0)
(0.997737 0.00165005 0)
(0.998042 0.00195975 0)
(0.997788 0.00231507 0)
(0.997528 0.00257633 0)
(0.999945 -0.00161864 0)
(0.998195 0.00146906 0)
(1.00094 0.000885673 0)
(1.00019 -0.00241049 0)
(0.997662 0.00195473 0)
(1.00096 0.000648683 0)
(1.00109 -0.0011391 0)
(0.998091 -0.000213926 0)
(0.998596 0.000136363 0)
(0.999811 0.000950009 0)
(0.999447 0.000585664 0)
(0.99904 -0.000169667 0)
(0.998951 -9.59067e-05 0)
(0.998413 3.22355e-05 0)
(0.99755 0.000561765 0)
(0.997323 0.00133448 0)
(0.997828 0.00173686 0)
(0.998138 0.00197649 0)
(0.997904 0.00225553 0)
(0.997632 0.00256866 0)
(0.999968 -0.00145808 0)
(0.998321 0.00121686 0)
(1.00075 0.000965548 0)
(1.00026 -0.0022506 0)
(0.997835 0.00173288 0)
(1.00075 0.000727504 0)
(1.00104 -0.00117028 0)
(0.998192 -1.61819e-05 0)
(0.998677 0.00017039 0)
(0.999853 0.000708627 0)
(0.999345 0.000698445 0)
(0.998967 -6.91686e-05 0)
(0.998991 -3.17111e-05 0)
(0.998497 0.000298163 0)
(0.99771 0.000666458 0)
(0.997504 0.00127551 0)
(0.997944 0.00176113 0)
(0.998225 0.00202678 0)
(0.998017 0.002251 0)
(0.997757 0.00252158 0)
(0.999987 -0.0012977 0)
(0.998453 0.000974454 0)
(1.00057 0.00102513 0)
(1.00032 -0.00206471 0)
(0.998018 0.00148158 0)
(1.00055 0.000824689 0)
(1.001 -0.00117838 0)
(0.998304 0.000113646 0)
(0.998725 0.000268088 0)
(0.999908 0.000471491 0)
(0.999276 0.000768123 0)
(0.998877 0.000110891 0)
(0.999045 -1.07154e-05 0)
(0.998605 0.000468664 0)
(0.997842 0.000855379 0)
(0.997674 0.00125742 0)
(0.99809 0.00171425 0)
(0.998325 0.00206021 0)
(0.99811 0.00229394 0)
(0.997877 0.002495 0)
(1 -0.00114069 0)
(0.998592 0.000749766 0)
(1.0004 0.0010577 0)
(1.00036 -0.00185722 0)
(0.998211 0.00122163 0)
(1.00035 0.000920569 0)
(1.00095 -0.00115543 0)
(0.998439 0.000162845 0)
(0.998744 0.000422876 0)
(0.999957 0.000272441 0)
(0.999253 0.000756847 0)
(0.998776 0.000351275 0)
(0.999092 2.81791e-05 0)
(0.998751 0.000526163 0)
(0.997962 0.00104697 0)
(0.997801 0.00131684 0)
(0.998247 0.00162858 0)
(0.998463 0.0020264 0)
(0.998211 0.00233586 0)
(0.997974 0.0025298 0)
(1.00002 -0.000988607 0)
(0.998735 0.000545965 0)
(1.00024 0.00106078 0)
(1.00038 -0.00162775 0)
(0.998412 0.000959436 0)
(1.00016 0.00100115 0)
(1.00089 -0.00108214 0)
(0.998597 0.000147526 0)
(0.998741 0.000587384 0)
(0.999986 0.00014716 0)
(0.999285 0.000659974 0)
(0.99868 0.000601176 0)
(0.999102 0.000139663 0)
(0.998928 0.00050634 0)
(0.998111 0.00117404 0)
(0.997891 0.00145283 0)
(0.99838 0.00159111 0)
(0.998639 0.0019332 0)
(0.998352 0.00232947 0)
(0.998058 0.0025842 0)
(1.00003 -0.000843744 0)
(0.99888 0.00036687 0)
(1.00011 0.00103458 0)
(1.00039 -0.0013838 0)
(0.998619 0.000706858 0)
(0.999979 0.00105612 0)
(1.00081 -0.000955814 0)
(0.998776 8.20191e-05 0)
(0.998732 0.000740033 0)
(0.999979 0.000113539 0)
(0.999366 0.000515027 0)
(0.998618 0.000795766 0)
(0.999068 0.00034052 0)
(0.999108 0.000484564 0)
(0.998309 0.0012042 0)
(0.997966 0.00160084 0)
(0.998459 0.00163145 0)
(0.998819 0.001829 0)
(0.99855 0.002249 0)
(0.998175 0.00259866 0)
(1.00003 -0.000708404 0)
(0.999024 0.000215937 0)
(0.999991 0.000980027 0)
(1.00037 -0.0011331 0)
(0.998825 0.000477562 0)
(0.999825 0.00107213 0)
(1.00071 -0.000782272 0)
(0.99897 -2.82781e-07 0)
(0.998733 0.000845992 0)
(0.999932 0.000169529 0)
(0.999477 0.000373321 0)
(0.998613 0.000904804 0)
(0.998998 0.000589549 0)
(0.999252 0.000505803 0)
(0.998555 0.0011473 0)
(0.99807 0.00169428 0)
(0.998488 0.00173856 0)
(0.998961 0.00177758 0)
(0.998786 0.00212976 0)
(0.998362 0.00253725 0)
(1.00004 -0.000584082 0)
(0.999164 9.41995e-05 0)
(0.999898 0.000901329 0)
(1.00033 -0.00088565 0)
(0.999026 0.000282898 0)
(0.999702 0.00104351 0)
(1.0006 -0.000576127 0)
(0.999165 -8.12367e-05 0)
(0.998756 0.000887427 0)
(0.999848 0.000292457 0)
(0.999593 0.000267197 0)
(0.998677 0.000917612 0)
(0.998919 0.000832882 0)
(0.999337 0.000602152 0)
(0.998823 0.0010664 0)
(0.998236 0.00170085 0)
(0.998499 0.0018558 0)
(0.999041 0.00179846 0)
(0.999014 0.0020268 0)
(0.998616 0.00241395 0)
(1.00004 -0.000472638 0)
(0.999298 2.495e-06 0)
(0.999827 0.000803439 0)
(1.00028 -0.000651552 0)
(0.999213 0.000131032 0)
(0.999614 0.000974027 0)
(1.00046 -0.000356711 0)
(0.99935 -0.000139857 0)
(0.998815 0.000864869 0)
(0.999741 0.000447676 0)
(0.999689 0.00022619 0)
(0.998805 0.000859918 0)
(0.998866 0.00101923 0)
(0.999358 0.0007625 0)
(0.999071 0.00101543 0)
(0.998463 0.00163175 0)
(0.998535 0.00192719 0)
(0.999067 0.00186726 0)
(0.999192 0.00197357 0)
(0.998895 0.00228237 0)
(1.00003 -0.000374842 0)
(0.999422 -6.10807e-05 0)
(0.99978 0.000694114 0)
(1.00022 -0.000440287 0)
(0.999381 2.72987e-05 0)
(0.999563 0.000871875 0)
(1.00032 -0.000144965 0)
(0.999511 -0.000152712 0)
(0.998912 0.000792143 0)
(0.999631 0.00059555 0)
(0.999747 0.000262917 0)
(0.998976 0.000781745 0)
(0.998865 0.00112482 0)
(0.999337 0.000943998 0)
(0.999265 0.0010211 0)
(0.99873 0.00153041 0)
(0.99863 0.00192958 0)
(0.999071 0.00194032 0)
(0.999311 0.00196762 0)
(0.999147 0.00218808 0)
(1.00003 -0.000290829 0)
(0.999533 -9.92607e-05 0)
(0.999755 0.00058072 0)
(1.00016 -0.000259524 0)
(0.999524 -2.89842e-05 0)
(0.999547 0.000751923 0)
(1.00018 3.9524e-05 0)
(0.999638 -0.000117714 0)
(0.999039 0.000695793 0)
(0.99954 0.000706128 0)
(0.999765 0.000360071 0)
(0.99916 0.000719068 0)
(0.998925 0.00115205 0)
(0.999303 0.00110131 0)
(0.999393 0.00108285 0)
(0.998997 0.00144401 0)
(0.998788 0.00186969 0)
(0.999091 0.0019825 0)
(0.999384 0.00198449 0)
(0.999344 0.00213403 0)
(1.00003 -0.000220746 0)
(0.999631 -0.000115252 0)
(0.999748 0.000470931 0)
(1.0001 -0.0001134 0)
(0.999641 -4.55324e-05 0)
(0.99956 0.000630226 0)
(1.00006 0.000187483 0)
(0.999728 -4.28489e-05 0)
(0.999183 0.000603227 0)
(0.999485 0.000767873 0)
(0.999752 0.000483602 0)
(0.99933 0.00069156 0)
(0.999038 0.0011271 0)
(0.999292 0.00120676 0)
(0.999467 0.00117331 0)
(0.999231 0.00139829 0)
(0.998994 0.00177746 0)
(0.999152 0.00197667 0)
(0.999436 0.00199887 0)
(0.999491 0.00209991 0)
(1.00002 -0.000163465 0)
(0.999715 -0.000114066 0)
(0.999757 0.000371996 0)
(1.00004 -2.85364e-06 0)
(0.999731 -2.97317e-05 0)
(0.999596 0.000518453 0)
(0.999956 0.000294507 0)
(0.999785 5.95482e-05 0)
(0.99933 0.000532348 0)
(0.999471 0.000784545 0)
(0.999726 0.000604206 0)
(0.999471 0.000704881 0)
(0.999185 0.00108502 0)
(0.999319 0.00125689 0)
(0.999512 0.00125729 0)
(0.999413 0.00139257 0)
(0.999214 0.00168921 0)
(0.999263 0.00192549 0)
(0.999492 0.0019936 0)
(0.999605 0.00206792 0)
(1.00002 -0.000117734 0)
(0.999784 -0.000100595 0)
(0.999777 0.000287918 0)
(0.999993 7.52865e-05 0)
(0.999796 8.40148e-06 0)
(0.999645 0.000427556 0)
(0.999884 0.000360735 0)
(0.999815 0.000168462 0)
(0.999465 0.000491522 0)
(0.999495 0.000771745 0)
(0.999703 0.000701718 0)
(0.999578 0.000747729 0)
(0.999342 0.00104721 0)
(0.999386 0.00126268 0)
(0.999554 0.00131357 0)
(0.999549 0.00140659 0)
(0.999419 0.00162338 0)
(0.999411 0.00184945 0)
(0.999569 0.00195957 0)
(0.9997 0.00202863 0)
(1.00001 -8.20386e-05 0)
(0.999839 -7.97568e-05 0)
(0.999804 0.000221458 0)
(0.999957 0.000125865 0)
(0.999841 5.61686e-05 0)
(0.9997 0.000362468 0)
(0.999842 0.000394223 0)
(0.999831 0.000266452 0)
(0.999582 0.000479416 0)
(0.999549 0.00074661 0)
(0.999698 0.000767212 0)
(0.999659 0.000801355 0)
(0.999491 0.00102375 0)
(0.999483 0.00124208 0)
(0.999609 0.00133733 0)
(0.999656 0.00141953 0)
(0.999595 0.00157733 0)
(0.999573 0.00176881 0)
(0.999671 0.0018985 0)
(0.999792 0.00197546 0)
(1.00001 -5.46269e-05 0)
(0.999882 -5.55126e-05 0)
(0.999834 0.000172732 0)
(0.999935 0.00015546 0)
(0.999872 0.000104188 0)
(0.999754 0.000321507 0)
(0.999826 0.000406861 0)
(0.99984 0.000346473 0)
(0.999678 0.000489146 0)
(0.999621 0.000721424 0)
(0.999715 0.000802516 0)
(0.999723 0.000849522 0)
(0.999623 0.00101432 0)
(0.999598 0.00121098 0)
(0.999682 0.00133236 0)
(0.999749 0.00141869 0)
(0.999742 0.0015396 0)
(0.999732 0.00169253 0)
(0.999792 0.0018206 0)
(0.999891 0.00190588 0)
(1.00001 -3.38824e-05 0)
(0.999914 -3.08714e-05 0)
(0.999864 0.000140069 0)
(0.999924 0.000170743 0)
(0.999893 0.000146921 0)
(0.999803 0.000300836 0)
(0.999831 0.000408565 0)
(0.999852 0.000405152 0)
(0.999756 0.000510081 0)
(0.9997 0.000701985 0)
(0.999753 0.00081503 0)
(0.999782 0.00088254 0)
(0.999736 0.00101168 0)
(0.999716 0.00117833 0)
(0.999772 0.00130676 0)
(0.999838 0.00139975 0)
(0.999865 0.00150037 0)
(0.999876 0.00162141 0)
(0.99992 0.00173588 0)
(0.999997 0.00182278 0)
(1 -1.82383e-05 0)
(0.999938 -7.7179e-06 0)
(0.999892 0.000120774 0)
(0.999923 0.000177409 0)
(0.999909 0.000181303 0)
(0.999847 0.000294527 0)
(0.999851 0.000405673 0)
(0.99987 0.000443832 0)
(0.99982 0.000532749 0)
(0.999778 0.000689099 0)
(0.999808 0.000812731 0)
(0.999842 0.000897459 0)
(0.999834 0.00100735 0)
(0.999829 0.00114583 0)
(0.99987 0.00126833 0)
(0.99993 0.00136377 0)
(0.999974 0.00145362 0)
(1 0.0015518 0)
(1.00004 0.00164904 0)
(1.00011 0.00173061 0)
(1 -6.32629e-06 0)
(0.999956 1.25111e-05 0)
(0.999917 0.000111448 0)
(0.999929 0.000179632 0)
(0.999925 0.000206732 0)
(0.999885 0.00029642 0)
(0.99988 0.000401748 0)
(0.999895 0.000466099 0)
(0.999876 0.000550507 0)
(0.999853 0.00068006 0)
(0.999872 0.0008011 0)
(0.999907 0.000895473 0)
(0.999922 0.000995191 0)
(0.999934 0.00111128 0)
(0.999969 0.0012217 0)
(1.00002 0.00131414 0)
(1.00007 0.00139674 0)
(1.00012 0.00147927 0)
(1.00016 0.00156055 0)
(1.00022 0.00163287 0)
(1 2.31258e-06 0)
(0.999969 2.89412e-05 0)
(0.999938 0.000108736 0)
(0.999941 0.000179992 0)
(0.999941 0.000223869 0)
(0.999919 0.000301214 0)
(0.999914 0.000397778 0)
(0.999927 0.00047557 0)
(0.999927 0.000559762 0)
(0.999922 0.000670756 0)
(0.99994 0.000782995 0)
(0.999974 0.00087939 0)
(1 0.000972522 0)
(1.00003 0.00107195 0)
(1.00007 0.00116881 0)
(1.00012 0.00125421 0)
(1.00017 0.00132981 0)
(1.00022 0.00140103 0)
(1.00027 0.00146919 0)
(1.00032 0.00153129 0)
(1 8.56036e-06 0)
(0.999979 4.1933e-05 0)
(0.999957 0.000109758 0)
(0.999955 0.000179606 0)
(0.999958 0.000233779 0)
(0.99995 0.000305016 0)
(0.99995 0.000392959 0)
(0.999964 0.000475194 0)
(0.999976 0.000559218 0)
(0.999986 0.000657474 0)
(1.00001 0.000759101 0)
(1.00004 0.000851902 0)
(1.00008 0.000938856 0)
(1.00012 0.00102574 0)
(1.00016 0.00110984 0)
(1.00021 0.00118615 0)
(1.00026 0.00125407 0)
(1.00031 0.00131609 0)
(1.00036 0.0013737 0)
(1.00041 0.00142623 0)
(1 1.3365e-05 0)
(0.999986 5.16965e-05 0)
(0.999972 0.000112097 0)
(0.999972 0.000178509 0)
(0.999977 0.000237546 0)
(0.99998 0.000305353 0)
(0.999987 0.000385701 0)
(1 0.000466835 0)
(1.00002 0.00054886 0)
(1.00005 0.000637674 0)
(1.00007 0.000728818 0)
(1.00011 0.00081475 0)
(1.00015 0.00089473 0)
(1.00019 0.000971376 0)
(1.00024 0.00104422 0)
(1.00029 0.00111096 0)
(1.00034 0.00117073 0)
(1.00039 0.00122453 0)
(1.00044 0.00127338 0)
(1.00049 0.00131752 0)
(1 1.67437e-05 0)
(0.999992 5.83036e-05 0)
(0.999986 0.000113884 0)
(0.999988 0.000176075 0)
(0.999997 0.000235925 0)
(1.00001 0.000300766 0)
(1.00002 0.000374391 0)
(1.00004 0.000451279 0)
(1.00007 0.00052919 0)
(1.0001 0.000609914 0)
(1.00014 0.000691219 0)
(1.00018 0.000768776 0)
(1.00022 0.000840932 0)
(1.00027 0.000908453 0)
(1.00032 0.000971404 0)
(1.00037 0.00102896 0)
(1.00042 0.0010806 0)
(1.00047 0.00112675 0)
(1.00052 0.00116804 0)
(1.00057 0.00120493 0)
(1 1.88864e-05 0)
(0.999997 6.19449e-05 0)
(0.999997 0.000113818 0)
(1 0.000171411 0)
(1.00002 0.000229252 0)
(1.00003 0.000290439 0)
(1.00006 0.0003577 0)
(1.00008 0.000428592 0)
(1.00012 0.000500671 0)
(1.00015 0.000573531 0)
(1.00019 0.00064558 0)
(1.00024 0.000714289 0)
(1.00028 0.00077813 0)
(1.00033 0.000837053 0)
(1.00038 0.000891132 0)
(1.00043 0.0009402 0)
(1.00049 0.000984112 0)
(1.00054 0.00102314 0)
(1.00059 0.00105773 0)
(1.00063 0.00108833 0)
(1 1.98657e-05 0)
(1 6.26961e-05 0)
(1.00001 0.000110965 0)
(1.00002 0.000163606 0)
(1.00004 0.000217508 0)
(1.00006 0.00027397 0)
(1.00009 0.000334702 0)
(1.00012 0.00039857 0)
(1.00016 0.000463543 0)
(1.0002 0.000528303 0)
(1.00024 0.000591419 0)
(1.00029 0.000651265 0)
(1.00034 0.000706676 0)
(1.00039 0.000757354 0)
(1.00044 0.000803314 0)
(1.00049 0.000844643 0)
(1.00055 0.000881429 0)
(1.0006 0.000913947 0)
(1.00064 0.000942554 0)
(1.00069 0.000967659 0)
(1 1.97105e-05 0)
(1 6.05836e-05 0)
(1.00002 0.000104668 0)
(1.00003 0.000151808 0)
(1.00006 0.000200368 0)
(1.00008 0.000251024 0)
(1.00012 0.000304756 0)
(1.00015 0.000360915 0)
(1.0002 0.000417891 0)
(1.00024 0.000474207 0)
(1.00029 0.000528523 0)
(1.00034 0.000579659 0)
(1.00039 0.000626766 0)
(1.00044 0.000669541 0)
(1.0005 0.000707988 0)
(1.00055 0.000742274 0)
(1.0006 0.000772604 0)
(1.00065 0.000799273 0)
(1.00069 0.000822604 0)
(1.00074 0.000842951 0)
(1 1.8424e-05 0)
(1.00001 5.5554e-05 0)
(1.00002 9.44529e-05 0)
(1.00004 0.000135283 0)
(1.00007 0.000177265 0)
(1.0001 0.000220955 0)
(1.00014 0.000266896 0)
(1.00018 0.00031461 0)
(1.00023 0.000362805 0)
(1.00028 0.00041018 0)
(1.00033 0.000455559 0)
(1.00038 0.000498033 0)
(1.00043 0.000536972 0)
(1.00049 0.00057214 0)
(1.00054 0.000603541 0)
(1.00059 0.000631356 0)
(1.00064 0.000655817 0)
(1.00069 0.000677222 0)
(1.00074 0.000695872 0)
(1.00078 0.000712087 0)
(1 1.61759e-05 0)
(1.00001 4.79673e-05 0)
(1.00003 8.04699e-05 0)
(1.00005 0.000113952 0)
(1.00009 0.000148114 0)
(1.00012 0.000183444 0)
(1.00016 0.000220253 0)
(1.00021 0.000258162 0)
(1.00026 0.00029622 0)
(1.00031 0.000333406 0)
(1.00036 0.000368806 0)
(1.00042 0.000401749 0)
(1.00047 0.0004318 0)
(1.00053 0.000458806 0)
(1.00058 0.000482792 0)
(1.00063 0.000503921 0)
(1.00068 0.000522401 0)
(1.00073 0.000538485 0)
(1.00077 0.000552424 0)
(1.00081 0.000564478 0)
(1 1.32993e-05 0)
(1.00001 3.94475e-05 0)
(1.00003 6.62231e-05 0)
(1.00006 9.38866e-05 0)
(1.0001 0.000122319 0)
(1.00014 0.000151779 0)
(1.00018 0.00018234 0)
(1.00023 0.000213665 0)
(1.00028 0.000245038 0)
(1.00033 0.000275632 0)
(1.00039 0.000304672 0)
(1.00044 0.000331611 0)
(1.0005 0.000356124 0)
(1.00055 0.00037812 0)
(1.00061 0.00039765 0)
(1.00066 0.000414873 0)
(1.00071 0.000429976 0)
(1.00075 0.000443173 0)
(1.0008 0.000454668 0)
(1.00084 0.00046466 0)
(1 5.87195e-06 0)
(1.00001 1.76317e-05 0)
(1.00004 2.99218e-05 0)
(1.00007 4.28354e-05 0)
(1.00011 5.63083e-05 0)
(1.00015 7.03963e-05 0)
(1.0002 8.50585e-05 0)
(1.00025 0.000100128 0)
(1.0003 0.00011526 0)
(1.00036 0.00013006 0)
(1.00042 0.000144134 0)
(1.00047 0.000157212 0)
(1.00053 0.00016913 0)
(1.00058 0.000179852 0)
(1.00064 0.000189401 0)
(1.00069 0.000197863 0)
(1.00074 0.000205327 0)
(1.00078 0.000211903 0)
(1.00083 0.000217686 0)
(1.00087 0.000222775 0)
(0.981366 0.00181441 0)
(0.958189 0.00308969 0)
(0.935342 0.00341233 0)
(0.91183 0.00339037 0)
(0.88758 0.00348229 0)
(0.86249 0.00359843 0)
(0.836827 0.00373177 0)
(0.809243 0.00375677 0)
(0.781492 0.00345995 0)
(0.755635 0.00334618 0)
(0.728905 0.00345929 0)
(0.700339 0.00338603 0)
(0.671505 0.00333998 0)
(0.642485 0.00330291 0)
(0.613224 0.00314196 0)
(0.583881 0.00311657 0)
(0.554318 0.00306381 0)
(0.524783 0.00280654 0)
(0.495672 0.00266541 0)
(0.46718 0.00259537 0)
(0.4399 0.00216537 0)
(0.41579 0.00131901 0)
(0.397762 0.000332973 0)
(0.387673 -0.000406879 0)
(0.384664 -0.000668003 0)
(0.385749 -0.000662559 0)
(0.387925 -0.000461113 0)
(0.389685 -0.00027913 0)
(0.390841 -0.00015185 0)
(0.39167 -6.63494e-05 0)
(0.392352 -1.42921e-05 0)
(0.39293 1.0681e-05 0)
(0.393409 1.8101e-05 0)
(0.393788 1.55572e-05 0)
(0.394074 9.12677e-06 0)
(0.394275 2.93334e-06 0)
(0.394408 -1.12405e-06 0)
(0.394491 -2.88518e-06 0)
(0.394542 -3.05798e-06 0)
(0.394574 -2.50042e-06 0)
(0.394595 -1.8109e-06 0)
(0.394611 -1.26093e-06 0)
(0.394623 -8.92806e-07 0)
(0.394633 -6.66386e-07 0)
(0.394642 -5.31625e-07 0)
(0.394649 -4.44196e-07 0)
(0.394656 -3.77206e-07 0)
(0.394661 -3.22881e-07 0)
(0.394666 -2.7758e-07 0)
(0.394669 -2.39056e-07 0)
(0.394673 -2.05667e-07 0)
(0.394675 -1.76665e-07 0)
(0.394678 -1.51773e-07 0)
(0.39468 -1.30292e-07 0)
(0.394681 -1.11648e-07 0)
(0.394683 -9.54858e-08 0)
(0.394684 -8.13888e-08 0)
(0.394685 -6.93608e-08 0)
(0.394686 -5.90176e-08 0)
(0.394686 -5.00953e-08 0)
(0.394687 -4.24262e-08 0)
(0.394687 -3.57642e-08 0)
(0.394688 -2.99724e-08 0)
(0.394688 -2.50769e-08 0)
(0.394688 -2.10097e-08 0)
(0.394688 -1.76462e-08 0)
(0.394689 -1.48333e-08 0)
(0.394689 -1.22786e-08 0)
(0.394689 -1.00079e-08 0)
(0.394689 -8.13562e-09 0)
(0.394689 -6.65638e-09 0)
(0.394689 -5.47463e-09 0)
(0.394689 -4.4347e-09 0)
(0.394689 -3.40962e-09 0)
(0.394689 -2.73093e-09 0)
(0.394689 -2.03306e-09 0)
(0.394689 -1.7563e-09 0)
(0.394689 -8.09752e-10 0)
(0.394689 -1.45983e-09 0)
(0.394689 1.13854e-09 0)
(0.394689 -2.75379e-09 0)
(0.394689 5.49252e-09 0)
(0.394689 -9.15542e-09 0)
(0.394688 1.82178e-08 0)
(0.39469 -2.84756e-08 0)
(0.394687 5.17917e-08 0)
(0.394691 -7.66906e-08 0)
(0.394683 1.24679e-07 0)
(0.394695 -1.66949e-07 0)
(0.394676 2.38326e-07 0)
(0.394703 -2.6431e-07 0)
(0.394666 3.23915e-07 0)
(0.39471 -2.21798e-07 0)
(0.394653 1.91816e-07 0)
(0.394708 2.94157e-07 0)
(0.394627 -2.13797e-07 0)
(0.3947 1.56859e-06 0)
(0.394518 -4.64116e-07 0)
(0.394681 2.74432e-06 0)
(0.394201 6.84837e-06 0)
(0.995077 0.00352458 0)
(0.994646 0.00566056 0)
(0.99431 0.00632803 0)
(0.99332 0.00622293 0)
(0.991777 0.00613108 0)
(0.98976 0.00620863 0)
(0.98717 0.00636785 0)
(0.983159 0.0065488 0)
(0.978173 0.00642342 0)
(0.97336 0.00619418 0)
(0.967964 0.00639438 0)
(0.961337 0.00665969 0)
(0.953883 0.00660465 0)
(0.945746 0.00660788 0)
(0.936856 0.00668713 0)
(0.927151 0.0065732 0)
(0.916687 0.00651647 0)
(0.905604 0.00656775 0)
(0.893872 0.00641723 0)
(0.881488 0.00610821 0)
(0.868923 0.00574514 0)
(0.857166 0.00504354 0)
(0.847226 0.00372661 0)
(0.839845 0.00210433 0)
(0.835217 0.000810391 0)
(0.832871 0.000126139 0)
(0.831828 -1.78486e-05 0)
(0.831269 -3.98701e-05 0)
(0.830974 -6.45339e-05 0)
(0.831152 -0.000109321 0)
(0.832002 -0.000142152 0)
(0.833506 -0.00014828 0)
(0.835436 -0.000130256 0)
(0.837479 -9.94271e-05 0)
(0.839349 -6.67381e-05 0)
(0.840865 -3.94395e-05 0)
(0.841971 -2.05252e-05 0)
(0.842704 -9.49081e-06 0)
(0.843148 -4.07187e-06 0)
(0.843395 -1.88592e-06 0)
(0.843523 -1.21377e-06 0)
(0.843584 -1.09459e-06 0)
(0.843611 -1.0785e-06 0)
(0.843621 -1.04326e-06 0)
(0.843624 -9.7369e-07 0)
(0.843623 -8.67695e-07 0)
(0.843621 -7.4245e-07 0)
(0.843619 -6.18286e-07 0)
(0.843616 -5.07353e-07 0)
(0.843613 -4.13071e-07 0)
(0.84361 -3.38152e-07 0)
(0.843607 -2.74139e-07 0)
(0.843604 -2.21048e-07 0)
(0.843601 -1.77582e-07 0)
(0.843599 -1.42141e-07 0)
(0.843596 -1.12955e-07 0)
(0.843594 -8.90977e-08 0)
(0.843592 -6.98969e-08 0)
(0.84359 -5.42275e-08 0)
(0.843589 -4.17749e-08 0)
(0.843587 -3.17839e-08 0)
(0.843586 -2.3608e-08 0)
(0.843584 -1.703e-08 0)
(0.843583 -1.17903e-08 0)
(0.843582 -7.71535e-09 0)
(0.843581 -4.80632e-09 0)
(0.84358 -2.79948e-09 0)
(0.84358 -1.13077e-09 0)
(0.843579 3.42962e-10 0)
(0.843578 1.44754e-09 0)
(0.843578 2.14539e-09 0)
(0.843578 2.48421e-09 0)
(0.843577 2.62052e-09 0)
(0.843577 3.00294e-09 0)
(0.843577 3.02119e-09 0)
(0.843576 3.32039e-09 0)
(0.843576 2.68633e-09 0)
(0.843576 3.96611e-09 0)
(0.843576 1.46972e-09 0)
(0.843575 7.09638e-09 0)
(0.843576 -2.64892e-09 0)
(0.843575 1.66101e-08 0)
(0.843576 -1.70316e-08 0)
(0.843573 4.55874e-08 0)
(0.843578 -6.0267e-08 0)
(0.843569 1.22158e-07 0)
(0.843584 -1.67156e-07 0)
(0.843559 2.8641e-07 0)
(0.843599 -3.63692e-07 0)
(0.843536 5.34321e-07 0)
(0.843626 -5.51236e-07 0)
(0.843501 6.51119e-07 0)
(0.843659 -2.73935e-07 0)
(0.843466 9.61284e-08 0)
(0.843674 1.29609e-06 0)
(0.843441 -1.2396e-06 0)
(0.843658 4.12545e-06 0)
(0.843369 -4.72018e-07 0)
(0.843609 4.0402e-06 0)
(0.84316 1.37408e-05 0)
(0.996001 0.00287489 0)
(0.995827 0.00418866 0)
(0.996176 0.00496594 0)
(0.996418 0.00506149 0)
(0.99658 0.00518894 0)
(0.997248 0.00544082 0)
(0.998074 0.00569019 0)
(0.998285 0.00603051 0)
(0.998085 0.00594231 0)
(0.997767 0.00569818 0)
(0.997371 0.00605289 0)
(0.996972 0.00638503 0)
(0.996241 0.00638109 0)
(0.995241 0.00658423 0)
(0.994346 0.00678235 0)
(0.99306 0.00673514 0)
(0.991251 0.00682273 0)
(0.989628 0.00699171 0)
(0.987888 0.00683853 0)
(0.985346 0.00653404 0)
(0.982649 0.00631946 0)
(0.980625 0.00563502 0)
(0.978875 0.00398064 0)
(0.976707 0.00193272 0)
(0.97439 0.000415057 0)
(0.9727 -0.000178348 0)
(0.971813 -0.000244549 0)
(0.971378 -0.00019468 0)
(0.971118 -0.000189544 0)
(0.971049 -0.00026097 0)
(0.971284 -0.000370888 0)
(0.971853 -0.000467817 0)
(0.972676 -0.000517032 0)
(0.973608 -0.000504843 0)
(0.974505 -0.00043938 0)
(0.975259 -0.000343845 0)
(0.975821 -0.000243998 0)
(0.976196 -0.00015818 0)
(0.976419 -9.42951e-05 0)
(0.976537 -5.20172e-05 0)
(0.97659 -2.67337e-05 0)
(0.976607 -1.2906e-05 0)
(0.976606 -5.87941e-06 0)
(0.976596 -2.5149e-06 0)
(0.976584 -9.1756e-07 0)
(0.976572 -1.92315e-07 0)
(0.976559 1.38661e-07 0)
(0.976547 2.92802e-07 0)
(0.976536 3.64794e-07 0)
(0.976526 3.95855e-07 0)
(0.976517 4.01165e-07 0)
(0.976508 3.95962e-07 0)
(0.9765 3.82891e-07 0)
(0.976493 3.64265e-07 0)
(0.976487 3.421e-07 0)
(0.976481 3.18581e-07 0)
(0.976475 2.942e-07 0)
(0.976471 2.69323e-07 0)
(0.976466 2.45245e-07 0)
(0.976463 2.21812e-07 0)
(0.976459 1.99646e-07 0)
(0.976456 1.79096e-07 0)
(0.976453 1.60024e-07 0)
(0.976451 1.4236e-07 0)
(0.976449 1.26176e-07 0)
(0.976447 1.11092e-07 0)
(0.976446 9.71797e-08 0)
(0.976444 8.50383e-08 0)
(0.976443 7.44158e-08 0)
(0.976442 6.49475e-08 0)
(0.976441 5.63888e-08 0)
(0.97644 4.86233e-08 0)
(0.976439 4.18179e-08 0)
(0.976439 3.62812e-08 0)
(0.976438 3.12473e-08 0)
(0.976438 2.70788e-08 0)
(0.976437 2.30015e-08 0)
(0.976437 2.06812e-08 0)
(0.976437 1.68808e-08 0)
(0.976436 1.83145e-08 0)
(0.976436 1.11887e-08 0)
(0.976436 2.12398e-08 0)
(0.976437 1.40682e-09 0)
(0.976434 3.79479e-08 0)
(0.976439 -2.415e-08 0)
(0.976429 8.64758e-08 0)
(0.976446 -8.87649e-08 0)
(0.976417 2.01406e-07 0)
(0.976463 -2.24673e-07 0)
(0.97639 4.14551e-07 0)
(0.976498 -3.97334e-07 0)
(0.976345 6.06029e-07 0)
(0.976546 -1.77908e-07 0)
(0.976295 1.82635e-07 0)
(0.976573 1.66226e-06 0)
(0.976274 -1.47901e-06 0)
(0.97654 5.58421e-06 0)
(0.976264 -2.85056e-07 0)
(0.976451 5.46561e-06 0)
(0.976135 1.70283e-05 0)
(0.996399 0.00273307 0)
(0.996184 0.00386996 0)
(0.996422 0.00476545 0)
(0.996619 0.00516972 0)
(0.996699 0.00544949 0)
(0.997426 0.00565714 0)
(0.998507 0.00578278 0)
(0.999057 0.00600613 0)
(0.999426 0.00600175 0)
(0.99974 0.00593269 0)
(0.999885 0.00626123 0)
(1.00022 0.00654446 0)
(1.00046 0.0066006 0)
(1.00059 0.00677605 0)
(1.00111 0.00691423 0)
(1.00155 0.00690749 0)
(1.00163 0.00703003 0)
(1.00212 0.00711505 0)
(1.00286 0.00689853 0)
(1.00298 0.00666645 0)
(1.00302 0.00644701 0)
(1.00384 0.00564932 0)
(1.00471 0.00401252 0)
(1.00442 0.00219776 0)
(1.0031 0.000950583 0)
(1.00176 0.000366319 0)
(1.00095 0.000179351 0)
(1.00056 0.000120498 0)
(1.0003 3.68489e-05 0)
(1.0001 -8.22708e-05 0)
(0.999955 -0.000219482 0)
(0.999877 -0.000324427 0)
(0.999848 -0.000367853 0)
(0.999859 -0.000347963 0)
(0.999899 -0.000284611 0)
(0.999956 -0.000205299 0)
(1.00001 -0.000132142 0)
(1.00006 -7.63112e-05 0)
(1.00009 -3.94482e-05 0)
(1.00011 -1.79235e-05 0)
(1.00011 -6.62338e-06 0)
(1.0001 -1.22217e-06 0)
(1.00009 1.12848e-06 0)
(1.00007 1.9461e-06 0)
(1.00005 2.16028e-06 0)
(1.00004 2.13819e-06 0)
(1.00002 2.04844e-06 0)
(1 1.93772e-06 0)
(0.999989 1.81706e-06 0)
(0.999975 1.69011e-06 0)
(0.999963 1.56086e-06 0)
(0.999952 1.43167e-06 0)
(0.999942 1.30495e-06 0)
(0.999932 1.18285e-06 0)
(0.999924 1.0669e-06 0)
(0.999917 9.58798e-07 0)
(0.99991 8.58271e-07 0)
(0.999904 7.65113e-07 0)
(0.999899 6.80184e-07 0)
(0.999894 6.02432e-07 0)
(0.99989 5.32019e-07 0)
(0.999886 4.68636e-07 0)
(0.999883 4.11595e-07 0)
(0.99988 3.60418e-07 0)
(0.999878 3.14793e-07 0)
(0.999875 2.73787e-07 0)
(0.999873 2.37172e-07 0)
(0.999872 2.05227e-07 0)
(0.99987 1.77299e-07 0)
(0.999869 1.528e-07 0)
(0.999868 1.3116e-07 0)
(0.999867 1.12074e-07 0)
(0.999866 9.5557e-08 0)
(0.999865 8.16938e-08 0)
(0.999865 6.95365e-08 0)
(0.999864 5.93001e-08 0)
(0.999864 5.0124e-08 0)
(0.999863 4.34404e-08 0)
(0.999863 3.61952e-08 0)
(0.999862 3.45504e-08 0)
(0.999863 2.50582e-08 0)
(0.999862 3.32466e-08 0)
(0.999863 1.17223e-08 0)
(0.99986 4.65394e-08 0)
(0.999865 -1.21123e-08 0)
(0.999855 8.89544e-08 0)
(0.999872 -6.43575e-08 0)
(0.999843 1.83132e-07 0)
(0.99989 -1.54141e-07 0)
(0.999816 3.29948e-07 0)
(0.999926 -2.05853e-07 0)
(0.999768 3.89093e-07 0)
(0.999977 2.03095e-07 0)
(0.999714 -1.43401e-07 0)
(1.00001 2.12849e-06 0)
(0.999693 -1.37633e-06 0)
(0.999972 5.68143e-06 0)
(0.999704 8.89808e-07 0)
(0.999869 5.61192e-06 0)