/*--------------------------------*- C++ -*----------------------------------*\
| =========                 |                                                 |
| \\      /  F ield         | OpenFOAM: The Open Source CFD Toolbox           |
|  \\    /   O peration     | Version:  v1906                                 |
|   \\  /    A nd           | Web:      www.OpenFOAM.com                      |
|    \\/     M anipulation  |                                                 |
\*---------------------------------------------------------------------------*/
FoamFile
{
    version     2.0;
    format      ascii;
    class       volScalarField;
    location    "0.4";
    object      p;
}
// * * * * * * * * * * * * * * * * * * * * * * * * * * * * * * * * * * * * * //

dimensions      [0 2 -2 0 0 0 0];


internalField   nonuniform List<scalar> 
400
(
-4.50603e-13
-9.59661e-07
-2.52708e-06
-4.22249e-06
-5.99332e-06
-7.84304e-06
-9.75926e-06
-1.17282e-05
-1.37421e-05
-1.57984e-05
-1.7899e-05
-2.00473e-05
-2.22483e-05
-2.45061e-05
-2.68181e-05
-2.91668e-05
-3.15164e-05
-3.38501e-05
-3.61736e-05
-3.77898e-05
-3.11627e-07
-1.28948e-06
-2.89213e-06
-4.5571e-06
-6.27009e-06
-8.0584e-06
-9.91467e-06
-1.1825e-05
-1.37829e-05
-1.57864e-05
-1.78353e-05
-1.99309e-05
-2.20769e-05
-2.42759e-05
-2.65235e-05
-2.88024e-05
-3.10765e-05
-3.33505e-05
-3.57073e-05
-3.74279e-05
-5.29484e-07
-1.43866e-06
-3.05997e-06
-4.72563e-06
-6.40807e-06
-8.16082e-06
-9.98098e-06
-1.18547e-05
-1.3776e-05
-1.57426e-05
-1.77535e-05
-1.98093e-05
-2.19138e-05
-2.40691e-05
-2.62704e-05
-2.85009e-05
-3.07276e-05
-3.29762e-05
-3.53857e-05
-3.71902e-05
-7.1454e-07
-1.49353e-06
-3.11606e-06
-4.78773e-06
-6.45223e-06
-8.18213e-06
-9.98027e-06
-1.1832e-05
-1.37311e-05
-1.56737e-05
-1.76571e-05
-1.96814e-05
-2.17513e-05
-2.38703e-05
-2.60345e-05
-2.82275e-05
-3.04193e-05
-3.26503e-05
-3.50839e-05
-3.69013e-05
-8.66675e-07
-1.49983e-06
-3.10762e-06
-4.78628e-06
-6.43746e-06
-8.15003e-06
-9.93359e-06
-1.17716e-05
-1.36569e-05
-1.55841e-05
-1.75482e-05
-1.95473e-05
-2.1585e-05
-2.36658e-05
-2.57892e-05
-2.79432e-05
-3.01004e-05
-3.23071e-05
-3.47344e-05
-3.653e-05
-9.61014e-07
-1.45254e-06
-3.04196e-06
-4.72848e-06
-6.37119e-06
-8.07245e-06
-9.84734e-06
-1.16775e-05
-1.35545e-05
-1.54716e-05
-1.74218e-05
-1.94014e-05
-2.14108e-05
-2.34526e-05
-2.55299e-05
-2.76376e-05
-2.97545e-05
-3.19296e-05
-3.43323e-05
-3.60921e-05
-9.79033e-07
-1.35061e-06
-2.92607e-06
-4.62209e-06
-6.26084e-06
-7.95584e-06
-9.72635e-06
-1.15527e-05
-1.34251e-05
-1.53346e-05
-1.72724e-05
-1.92336e-05
-2.12168e-05
-2.32225e-05
-2.52541e-05
-2.73129e-05
-2.93849e-05
-3.15217e-05
-3.38893e-05
-3.56165e-05
-9.1383e-07
-1.19885e-06
-2.77035e-06
-4.47914e-06
-6.118e-06
-7.80949e-06
-9.57768e-06
-1.14024e-05
-1.32722e-05
-1.51753e-05
-1.71006e-05
-1.90417e-05
-2.09975e-05
-2.29692e-05
-2.49604e-05
-2.69748e-05
-2.90025e-05
-3.1096e-05
-3.3421e-05
-3.5127e-05
-7.5906e-07
-9.9815e-07
-2.5808e-06
-4.30688e-06
-5.95074e-06
-7.64254e-06
-9.41061e-06
-1.12344e-05
-1.31008e-05
-1.49968e-05
-1.69094e-05
-1.88308e-05
-2.07595e-05
-2.26991e-05
-2.46554e-05
-2.66318e-05
-2.86182e-05
-3.06646e-05
-3.29412e-05
-3.46412e-05
-5.08568e-07
-7.44674e-07
-2.35636e-06
-4.10569e-06
-5.76175e-06
-7.46116e-06
-9.23356e-06
-1.10567e-05
-1.29166e-05
-1.48012e-05
-1.66996e-05
-1.86032e-05
-2.05093e-05
-2.24213e-05
-2.43466e-05
-2.62882e-05
-2.82341e-05
-3.02296e-05
-3.24545e-05
-3.41678e-05
-1.57131e-07
-4.3366e-07
-2.0923e-06
-3.87301e-06
-5.55086e-06
-7.26683e-06
-9.04844e-06
-1.08708e-05
-1.27204e-05
-1.45894e-05
-1.64714e-05
-1.83597e-05
-2.02492e-05
-2.21394e-05
-2.40359e-05
-2.5942e-05
-2.78456e-05
-2.97877e-05
-3.19614e-05
-3.37123e-05
2.96811e-07
-6.17161e-08
-1.78508e-06
-3.60664e-06
-5.31633e-06
-7.0559e-06
-8.84898e-06
-1.06696e-05
-1.25078e-05
-1.43613e-05
-1.62288e-05
-1.81053e-05
-1.99822e-05
-2.18536e-05
-2.37217e-05
-2.55909e-05
-2.74519e-05
-2.93423e-05
-3.14692e-05
-3.32831e-05
8.44614e-07
3.68767e-07
-1.43495e-06
-3.30515e-06
-5.05463e-06
-6.82177e-06
-8.62646e-06
-1.04454e-05
-1.22754e-05
-1.41205e-05
-1.5981e-05
-1.78498e-05
-1.97142e-05
-2.1565e-05
-2.34037e-05
-2.52374e-05
-2.70606e-05
-2.89049e-05
-3.09915e-05
-3.28908e-05
1.46202e-06
8.40903e-07
-1.05186e-06
-2.97235e-06
-4.76447e-06
-6.56037e-06
-8.37773e-06
-1.0199e-05
-1.20293e-05
-1.38768e-05
-1.57389e-05
-1.76019e-05
-1.94502e-05
-2.12768e-05
-2.30875e-05
-2.48928e-05
-2.66865e-05
-2.84897e-05
-3.05402e-05
-3.25456e-05
2.10831e-06
1.32184e-06
-6.58076e-07
-2.62004e-06
-4.44917e-06
-6.27202e-06
-8.1059e-06
-9.93957e-06
-1.17823e-05
-1.36414e-05
-1.55078e-05
-1.73625e-05
-1.9192e-05
-2.09969e-05
-2.27882e-05
-2.4575e-05
-2.6345e-05
-2.81079e-05
-3.01245e-05
-3.2258e-05
2.73314e-06
1.77478e-06
-2.77478e-07
-2.26117e-06
-4.11363e-06
-5.95951e-06
-7.81607e-06
-9.67534e-06
-1.15425e-05
-1.34166e-05
-1.52838e-05
-1.71276e-05
-1.89433e-05
-2.07382e-05
-2.25218e-05
-2.42961e-05
-2.60443e-05
-2.77692e-05
-2.97549e-05
-3.20302e-05
3.28433e-06
2.1708e-06
7.61127e-08
-1.9037e-06
-3.76511e-06
-5.63191e-06
-7.5187e-06
-9.41295e-06
-1.13083e-05
-1.31951e-05
-1.50611e-05
-1.69002e-05
-1.87154e-05
-2.05133e-05
-2.22969e-05
-2.4062e-05
-2.5792e-05
-2.74848e-05
-2.94434e-05
-3.18665e-05
3.73444e-06
2.50801e-06
4.16151e-07
-1.53978e-06
-3.40782e-06
-5.30096e-06
-7.22307e-06
-9.15208e-06
-1.10716e-05
-1.29701e-05
-1.48425e-05
-1.66909e-05
-1.85187e-05
-2.03267e-05
-2.21155e-05
-2.3881e-05
-2.56004e-05
-2.72639e-05
-2.92004e-05
-3.17607e-05
4.0901e-06
2.84334e-06
8.08964e-07
-1.12707e-06
-3.01824e-06
-4.95012e-06
-6.91144e-06
-8.87316e-06
-1.08175e-05
-1.27365e-05
-1.46297e-05
-1.65011e-05
-1.83529e-05
-2.01805e-05
-2.19802e-05
-2.37531e-05
-2.54805e-05
-2.71404e-05
-2.90726e-05
-3.17828e-05
4.48457e-06
3.28105e-06
1.32896e-06
-6.13727e-07
-2.55328e-06
-4.53777e-06
-6.54632e-06
-8.54824e-06
-1.05277e-05
-1.24825e-05
-1.44154e-05
-1.63255e-05
-1.82077e-05
-2.00616e-05
-2.18915e-05
-2.36935e-05
-2.54441e-05
-2.71246e-05
-2.91101e-05
-3.2095e-05
)
;

boundaryField
{
    movingWall
    {
        type            zeroGradient;
    }
    bottomWall
    {
        type            zeroGradient;
    }
    leftSide
    {
        type            zeroGradient;
    }
    rightSide
    {
        type            zeroGradient;
    }
    frontAndBack
    {
        type            empty;
    }
}


// ************************************************************************* //
