/*--------------------------------*- C++ -*----------------------------------*\
| =========                 |                                                 |
| \\      /  F ield         | OpenFOAM: The Open Source CFD Toolbox           |
|  \\    /   O peration     | Version:  v1906                                 |
|   \\  /    A nd           | Web:      www.OpenFOAM.com                      |
|    \\/     M anipulation  |                                                 |
\*---------------------------------------------------------------------------*/
FoamFile
{
    version     2.0;
    format      ascii;
    class       surfaceScalarField;
    location    "0.4";
    object      phi;
}
// * * * * * * * * * * * * * * * * * * * * * * * * * * * * * * * * * * * * * //

dimensions      [0 3 -1 0 0 0 0];
oriented        oriented;


internalField   nonuniform List<scalar> 
760
(
1.19619e-06
-7.29567e-12
1.1962e-06
-6.97631e-12
1.19621e-06
-5.66379e-12
1.19621e-06
-4.67255e-12
1.19621e-06
-3.80252e-12
1.19622e-06
-3.00703e-12
1.19622e-06
-2.2467e-12
1.19622e-06
-1.55147e-12
1.19622e-06
-9.2523e-13
1.19622e-06
-3.56411e-13
1.19622e-06
1.77051e-13
1.19622e-06
7.02701e-13
1.19622e-06
1.25833e-12
1.19622e-06
1.88386e-12
1.19622e-06
2.61674e-12
1.19621e-06
3.49299e-12
1.19621e-06
4.55568e-12
1.1962e-06
6.03874e-12
1.19619e-06
8.80674e-12
1.12429e-11
3.58988e-06
-1.67926e-11
3.58989e-06
-1.6733e-11
3.5899e-06
-1.47477e-11
3.5899e-06
-1.26691e-11
3.58991e-06
-1.05549e-11
3.58992e-06
-8.45384e-12
3.58992e-06
-6.38404e-12
3.58992e-06
-4.4189e-12
3.58992e-06
-2.58789e-12
3.58992e-06
-8.75331e-13
3.58992e-06
7.71845e-13
3.58992e-06
2.42637e-12
3.58992e-06
4.17479e-12
3.58992e-06
6.1106e-12
3.58991e-06
8.3221e-12
3.5899e-06
1.08833e-11
3.58989e-06
1.38628e-11
3.58988e-06
1.74281e-11
3.58987e-06
2.26727e-11
2.67015e-11
5.98747e-06
-2.39994e-11
5.98748e-06
-2.42428e-11
5.98749e-06
-2.21566e-11
5.98749e-06
-1.95619e-11
5.9875e-06
-1.65854e-11
5.98751e-06
-1.34303e-11
5.98751e-06
-1.02101e-11
5.98751e-06
-7.05341e-12
5.98751e-06
-4.02696e-12
5.98751e-06
-1.12368e-12
5.98751e-06
1.72017e-12
5.98751e-06
4.60843e-12
5.98751e-06
7.67201e-12
5.9875e-06
1.10464e-11
5.9875e-06
1.48453e-11
5.98749e-06
1.91387e-11
5.98748e-06
2.39379e-11
5.98747e-06
2.91964e-11
5.98745e-06
3.59125e-11
4.06846e-11
8.39151e-06
-2.75069e-11
8.39151e-06
-2.80093e-11
8.39152e-06
-2.61916e-11
8.39152e-06
-2.35403e-11
8.39153e-06
-2.01923e-11
8.39153e-06
-1.64489e-11
8.39153e-06
-1.24918e-11
8.39153e-06
-8.4972e-12
8.39153e-06
-4.56928e-12
8.39153e-06
-7.18775e-13
8.39153e-06
3.11864e-12
8.39153e-06
7.05604e-12
8.39152e-06
1.12405e-11
8.39152e-06
1.58262e-11
8.39151e-06
2.09292e-11
8.39151e-06
2.65882e-11
8.3915e-06
3.27151e-11
8.39149e-06
3.9057e-11
8.39148e-06
4.65746e-11
5.17319e-11
1.08044e-05
-2.72177e-11
1.08044e-05
-2.78635e-11
1.08044e-05
-2.64513e-11
1.08044e-05
-2.40047e-11
1.08044e-05
-2.0684e-11
1.08044e-05
-1.68075e-11
1.08044e-05
-1.25818e-11
1.08044e-05
-8.20766e-12
1.08044e-05
-3.80859e-12
1.08044e-05
5.88237e-13
1.08044e-05
5.03774e-12
1.08044e-05
9.64999e-12
1.08044e-05
1.45692e-11
1.08043e-05
1.99434e-11
1.08043e-05
2.58715e-11
1.08043e-05
3.23477e-11
1.08043e-05
3.92046e-11
1.08043e-05
4.60578e-11
1.08043e-05
5.3918e-11
5.93427e-11
1.32282e-05
-2.33883e-11
1.32282e-05
-2.40998e-11
1.32282e-05
-2.31178e-11
1.32282e-05
-2.09911e-11
1.32282e-05
-1.79743e-11
1.32282e-05
-1.43419e-11
1.32282e-05
-1.02841e-11
1.32282e-05
-5.99418e-12
1.32282e-05
-1.59379e-12
1.32282e-05
2.88274e-12
1.32282e-05
7.47921e-12
1.32281e-05
1.22963e-11
1.32281e-05
1.74656e-11
1.32281e-05
2.31145e-11
1.32281e-05
2.93194e-11
1.32281e-05
3.60416e-11
1.32281e-05
4.30721e-11
1.32281e-05
4.99712e-11
1.32281e-05
5.78476e-11
6.34583e-11
1.56648e-05
-1.65703e-11
1.56648e-05
-1.72928e-11
1.56648e-05
-1.672e-11
1.56648e-05
-1.49422e-11
1.56648e-05
-1.23971e-11
1.56648e-05
-9.28986e-12
1.56648e-05
-5.76404e-12
1.56648e-05
-1.97265e-12
1.56648e-05
1.98756e-12
1.56648e-05
6.08815e-12
1.56648e-05
1.03653e-11
1.56648e-05
1.49076e-11
1.56648e-05
1.98305e-11
1.56648e-05
2.52412e-11
1.56648e-05
3.11957e-11
1.56648e-05
3.7644e-11
1.56648e-05
4.4374e-11
1.56648e-05
5.09624e-11
1.56648e-05
5.86102e-11
6.43381e-11
1.81159e-05
-7.51429e-12
1.81159e-05
-8.20033e-12
1.81159e-05
-8.00251e-12
1.81159e-05
-6.5587e-12
1.81159e-05
-4.57708e-12
1.81159e-05
-2.18487e-12
1.81159e-05
5.36769e-13
1.81159e-05
3.49864e-12
1.81159e-05
6.64832e-12
1.81159e-05
9.97873e-12
1.81159e-05
1.35274e-11
1.81159e-05
1.73731e-11
1.81159e-05
2.16144e-11
1.81159e-05
2.63412e-11
1.81159e-05
3.15971e-11
1.81159e-05
3.73436e-11
1.81159e-05
4.33996e-11
1.81159e-05
4.94066e-11
1.81159e-05
5.6634e-11
6.24076e-11
2.05826e-05
2.90865e-12
2.05826e-05
2.30514e-12
2.05826e-05
2.15787e-12
2.05826e-05
3.29239e-12
2.05826e-05
4.66826e-12
2.05826e-05
6.23141e-12
2.05826e-05
7.97169e-12
2.05826e-05
9.87498e-12
2.05826e-05
1.19459e-11
2.05826e-05
1.42115e-11
2.05826e-05
1.67208e-11
2.05826e-05
1.95472e-11
2.05826e-05
2.27758e-11
2.05826e-05
2.64841e-11
2.05826e-05
3.07121e-11
2.05826e-05
3.54436e-11
2.05826e-05
4.05561e-11
2.05826e-05
4.57849e-11
2.05826e-05
5.24481e-11
5.81794e-11
2.30658e-05
1.37744e-11
2.30658e-05
1.32847e-11
2.30658e-05
1.28132e-11
2.30658e-05
1.36481e-11
2.30657e-05
1.44041e-11
2.30657e-05
1.50857e-11
2.30657e-05
1.57561e-11
2.30657e-05
1.64794e-11
2.30657e-05
1.73225e-11
2.30657e-05
1.83527e-11
2.30657e-05
1.96389e-11
2.30657e-05
2.1253e-11
2.30657e-05
2.32697e-11
2.30657e-05
2.57565e-11
2.30657e-05
2.87584e-11
2.30657e-05
3.22887e-11
2.30657e-05
3.62969e-11
2.30657e-05
4.06239e-11
2.30657e-05
4.66227e-11
5.22241e-11
2.55658e-05
2.4139e-11
2.55658e-05
2.37801e-11
2.55658e-05
2.29852e-11
2.55658e-05
2.35088e-11
2.55658e-05
2.36414e-11
2.55657e-05
2.34414e-11
2.55657e-05
2.30365e-11
2.55657e-05
2.25663e-11
2.55657e-05
2.21582e-11
2.55657e-05
2.19194e-11
2.55657e-05
2.19398e-11
2.55657e-05
2.22922e-11
2.55657e-05
2.30412e-11
2.55657e-05
2.42454e-11
2.55657e-05
2.59578e-11
2.55657e-05
2.82269e-11
2.55657e-05
3.10759e-11
2.55657e-05
3.44556e-11
2.55657e-05
3.97303e-11
4.51456e-11
2.80827e-05
3.30845e-11
2.80827e-05
3.2858e-11
2.80826e-05
3.17098e-11
2.80826e-05
3.18855e-11
2.80826e-05
3.13987e-11
2.80826e-05
3.03666e-11
2.80826e-05
2.89631e-11
2.80826e-05
2.73937e-11
2.80826e-05
2.58364e-11
2.80826e-05
2.44318e-11
2.80826e-05
2.32856e-11
2.80826e-05
2.24704e-11
2.80826e-05
2.20378e-11
2.80826e-05
2.20361e-11
2.80826e-05
2.25258e-11
2.80826e-05
2.35916e-11
2.80826e-05
2.53276e-11
2.80826e-05
2.77935e-11
2.80826e-05
3.23357e-11
3.75364e-11
3.0616e-05
3.97779e-11
3.0616e-05
3.96394e-11
3.0616e-05
3.80902e-11
3.0616e-05
3.78578e-11
3.0616e-05
3.67731e-11
3.06159e-05
3.50102e-11
3.06159e-05
3.27692e-11
3.06159e-05
3.02997e-11
3.06159e-05
2.78148e-11
3.06159e-05
2.54756e-11
3.06159e-05
2.33932e-11
3.06159e-05
2.16332e-11
3.06159e-05
2.02314e-11
3.06159e-05
1.92239e-11
3.06159e-05
1.86748e-11
3.0616e-05
1.87009e-11
3.0616e-05
1.94607e-11
3.0616e-05
2.11136e-11
3.0616e-05
2.49741e-11
2.994e-11
3.31649e-05
4.35004e-11
3.31649e-05
4.33541e-11
3.31649e-05
4.13542e-11
3.31649e-05
4.0648e-11
3.31649e-05
3.90215e-11
3.31649e-05
3.66907e-11
3.31649e-05
3.38611e-11
3.31649e-05
3.07918e-11
3.31649e-05
2.77075e-11
3.31649e-05
2.47717e-11
3.31649e-05
2.20886e-11
3.31649e-05
1.9709e-11
3.31649e-05
1.76503e-11
3.31649e-05
1.59355e-11
3.31649e-05
1.46268e-11
3.31649e-05
1.38612e-11
3.31649e-05
1.38506e-11
3.31649e-05
1.48397e-11
3.31649e-05
1.81122e-11
2.2851e-11
3.57282e-05
4.36779e-11
3.57282e-05
4.3409e-11
3.57282e-05
4.09238e-11
3.57282e-05
3.97123e-11
3.57282e-05
3.76668e-11
3.57282e-05
3.50117e-11
3.57282e-05
3.19249e-11
3.57282e-05
2.86401e-11
3.57283e-05
2.53661e-11
3.57283e-05
2.22471e-11
3.57283e-05
1.93671e-11
3.57283e-05
1.67561e-11
3.57283e-05
1.44151e-11
3.57283e-05
1.23544e-11
3.57283e-05
1.06244e-11
3.57283e-05
9.36683e-12
3.57283e-05
8.83311e-12
3.57283e-05
9.34369e-12
3.57283e-05
1.21484e-11
1.67293e-11
3.83044e-05
3.99644e-11
3.83044e-05
3.94589e-11
3.83044e-05
3.65207e-11
3.83044e-05
3.48716e-11
3.83044e-05
3.26339e-11
3.83044e-05
2.99909e-11
3.83044e-05
2.70484e-11
3.83045e-05
2.39836e-11
3.83045e-05
2.09602e-11
3.83045e-05
1.80901e-11
3.83045e-05
1.54319e-11
3.83045e-05
1.2994e-11
3.83045e-05
1.07631e-11
3.83045e-05
8.73493e-12
3.83045e-05
6.93384e-12
3.83045e-05
5.49289e-12
3.83045e-05
4.70991e-12
3.83045e-05
4.975e-12
3.83045e-05
7.4603e-12
1.19303e-11
4.08916e-05
3.23951e-11
4.08916e-05
3.15438e-11
4.08916e-05
2.83476e-11
4.08916e-05
2.64964e-11
4.08916e-05
2.44318e-11
4.08916e-05
2.22105e-11
4.08916e-05
1.98306e-11
4.08916e-05
1.74015e-11
4.08916e-05
1.5029e-11
4.08916e-05
1.27906e-11
4.08916e-05
1.07252e-11
4.08916e-05
8.81969e-12
4.08916e-05
7.03588e-12
4.08916e-05
5.36487e-12
4.08916e-05
3.83346e-12
4.08916e-05
2.5347e-12
4.08916e-05
1.7382e-12
4.08917e-05
1.9366e-12
4.08917e-05
4.27702e-12
8.65953e-12
4.34875e-05
2.15788e-11
4.34875e-05
2.04457e-11
4.34875e-05
1.74038e-11
4.34875e-05
1.58014e-11
4.34875e-05
1.43525e-11
4.34876e-05
1.29245e-11
4.34876e-05
1.1435e-11
4.34876e-05
9.9402e-12
4.34876e-05
8.4991e-12
4.34876e-05
7.14816e-12
4.34876e-05
5.89968e-12
4.34876e-05
4.73966e-12
4.34876e-05
3.6471e-12
4.34876e-05
2.5993e-12
4.34876e-05
1.5724e-12
4.34876e-05
6.45439e-13
4.34876e-05
9.0411e-14
4.34876e-05
4.10746e-13
4.34876e-05
2.73795e-12
6.76932e-12
4.60899e-05
9.06855e-12
4.60899e-05
8.12395e-12
4.60899e-05
6.1709e-12
4.60899e-05
5.32793e-12
4.60899e-05
4.76813e-12
4.60899e-05
4.25896e-12
4.609e-05
3.73312e-12
4.609e-05
3.21555e-12
4.609e-05
2.71742e-12
4.609e-05
2.25115e-12
4.609e-05
1.83421e-12
4.609e-05
1.44931e-12
4.609e-05
1.06421e-12
4.609e-05
6.84485e-13
4.609e-05
3.05791e-13
4.609e-05
-6.3176e-14
4.609e-05
-2.56916e-13
4.609e-05
9.92198e-14
4.609e-05
2.0376e-12
5.80588e-12
4.86962e-05
4.86962e-05
4.86962e-05
4.86962e-05
4.86962e-05
4.86962e-05
4.86962e-05
4.86962e-05
4.86962e-05
4.86962e-05
4.86962e-05
4.86962e-05
4.86962e-05
4.86962e-05
4.86962e-05
4.86962e-05
4.86962e-05
4.86962e-05
4.86962e-05
)
;

boundaryField
{
    movingWall
    {
        type            calculated;
        value           uniform 0;
    }
    bottomWall
    {
        type            calculated;
        value           uniform 0;
    }
    leftSide
    {
        type            calculated;
        value           nonuniform List<scalar> 
20
(
-1.19619e-06
-3.58987e-06
-5.98747e-06
-8.39151e-06
-1.08044e-05
-1.32282e-05
-1.56649e-05
-1.81159e-05
-2.05826e-05
-2.30658e-05
-2.55658e-05
-2.80827e-05
-3.0616e-05
-3.31649e-05
-3.57282e-05
-3.83044e-05
-4.08915e-05
-4.34875e-05
-4.60899e-05
-4.86962e-05
)
;
    }
    rightSide
    {
        type            calculated;
        value           nonuniform List<scalar> 
20
(
1.19618e-06
3.58985e-06
5.98744e-06
8.39147e-06
1.08043e-05
1.32281e-05
1.56648e-05
1.81159e-05
2.05826e-05
2.30657e-05
2.55658e-05
2.80826e-05
3.0616e-05
3.31649e-05
3.57283e-05
3.83045e-05
4.08917e-05
4.34876e-05
4.609e-05
4.86963e-05
)
;
    }
    frontAndBack
    {
        type            empty;
        value           nonuniform 0();
    }
}


// ************************************************************************* //
