/*--------------------------------*- C++ -*----------------------------------*\
| =========                 |                                                 |
| \\      /  F ield         | OpenFOAM: The Open Source CFD Toolbox           |
|  \\    /   O peration     | Version:  v1906                                 |
|   \\  /    A nd           | Web:      www.OpenFOAM.com                      |
|    \\/     M anipulation  |                                                 |
\*---------------------------------------------------------------------------*/
FoamFile
{
    version     2.0;
    format      ascii;
    class       volVectorField;
    location    "0.4";
    object      U;
}
// * * * * * * * * * * * * * * * * * * * * * * * * * * * * * * * * * * * * * //

dimensions      [0 1 -1 0 0 0 0];


internalField   nonuniform List<vector> 
400
(
(0.0239238 -7.71928e-08 0)
(0.0239239 -6.70422e-08 0)
(0.0239241 -5.37161e-08 0)
(0.0239242 -4.29076e-08 0)
(0.0239243 -3.41744e-08 0)
(0.0239243 -2.65667e-08 0)
(0.0239244 -1.95254e-08 0)
(0.0239244 -1.32602e-08 0)
(0.0239244 -7.82542e-09 0)
(0.0239244 -3.08469e-09 0)
(0.0239245 1.22555e-09 0)
(0.0239244 5.38581e-09 0)
(0.0239244 9.80681e-09 0)
(0.0239244 1.48843e-08 0)
(0.0239243 2.09192e-08 0)
(0.0239243 2.81818e-08 0)
(0.0239242 3.71995e-08 0)
(0.0239241 5.10694e-08 0)
(0.0239239 7.77275e-08 0)
(0.0239237 1.13341e-07 0)
(0.0717974 -2.41571e-07 0)
(0.0717976 -2.39385e-07 0)
(0.0717978 -2.03023e-07 0)
(0.071798 -1.70804e-07 0)
(0.0717981 -1.40213e-07 0)
(0.0717983 -1.11366e-07 0)
(0.0717984 -8.35484e-08 0)
(0.0717984 -5.77276e-08 0)
(0.0717985 -3.41396e-08 0)
(0.0717985 -1.25245e-08 0)
(0.0717985 7.91077e-09 0)
(0.0717985 2.8196e-08 0)
(0.0717984 4.95498e-08 0)
(0.0717984 7.33531e-08 0)
(0.0717983 1.00956e-07 0)
(0.0717981 1.33549e-07 0)
(0.071798 1.72551e-07 0)
(0.0717978 2.23141e-07 0)
(0.0717975 3.06891e-07 0)
(0.0717971 3.69315e-07 0)
(0.119749 -4.24634e-07 0)
(0.119749 -4.24316e-07 0)
(0.11975 -3.81347e-07 0)
(0.11975 -3.32073e-07 0)
(0.11975 -2.79051e-07 0)
(0.11975 -2.24707e-07 0)
(0.11975 -1.70371e-07 0)
(0.11975 -1.18094e-07 0)
(0.11975 -6.87928e-08 0)
(0.11975 -2.21132e-08 0)
(0.11975 2.31138e-08 0)
(0.11975 6.86876e-08 0)
(0.11975 1.16865e-07 0)
(0.11975 1.7001e-07 0)
(0.11975 2.30328e-07 0)
(0.11975 2.99554e-07 0)
(0.11975 3.78765e-07 0)
(0.119749 4.69144e-07 0)
(0.119749 5.92185e-07 0)
(0.119749 6.8418e-07 0)
(0.16783 -5.35223e-07 0)
(0.16783 -5.42486e-07 0)
(0.16783 -5.01903e-07 0)
(0.16783 -4.47686e-07 0)
(0.16783 -3.82147e-07 0)
(0.167831 -3.10744e-07 0)
(0.167831 -2.36697e-07 0)
(0.167831 -1.63093e-07 0)
(0.167831 -9.17047e-08 0)
(0.167831 -2.25346e-08 0)
(0.167831 4.58433e-08 0)
(0.167831 1.15675e-07 0)
(0.167831 1.89752e-07 0)
(0.16783 2.71006e-07 0)
(0.16783 3.61851e-07 0)
(0.16783 4.63567e-07 0)
(0.16783 5.75557e-07 0)
(0.16783 6.94589e-07 0)
(0.16783 8.40048e-07 0)
(0.167829 9.4063e-07 0)
(0.216087 -5.67392e-07 0)
(0.216087 -5.78284e-07 0)
(0.216087 -5.45379e-07 0)
(0.216087 -4.93529e-07 0)
(0.216087 -4.2513e-07 0)
(0.216087 -3.46762e-07 0)
(0.216087 -2.62605e-07 0)
(0.216087 -1.76561e-07 0)
(0.216087 -9.09906e-08 0)
(0.216087 -6.32527e-09 0)
(0.216087 7.86518e-08 0)
(0.216087 1.66299e-07 0)
(0.216087 2.59705e-07 0)
(0.216087 3.61968e-07 0)
(0.216087 4.75122e-07 0)
(0.216087 5.99397e-07 0)
(0.216087 7.32078e-07 0)
(0.216087 8.6665e-07 0)
(0.216086 1.02264e-06 0)
(0.216086 1.12994e-06 0)
(0.264564 -5.23177e-07 0)
(0.264563 -5.36487e-07 0)
(0.264563 -5.12387e-07 0)
(0.264563 -4.66306e-07 0)
(0.264563 -4.01884e-07 0)
(0.264563 -3.25229e-07 0)
(0.264563 -2.40426e-07 0)
(0.264563 -1.51582e-07 0)
(0.264563 -6.12752e-08 0)
(0.264563 2.98004e-08 0)
(0.264563 1.2258e-07 0)
(0.264563 2.19171e-07 0)
(0.264563 3.22453e-07 0)
(0.264563 4.35373e-07 0)
(0.264563 5.59697e-07 0)
(0.264563 6.94725e-07 0)
(0.264563 8.36355e-07 0)
(0.264563 9.75921e-07 0)
(0.264562 1.1348e-06 0)
(0.264562 1.24614e-06 0)
(0.313297 -4.13245e-07 0)
(0.313297 -4.27375e-07 0)
(0.313297 -4.11838e-07 0)
(0.313297 -3.72736e-07 0)
(0.313296 -3.16491e-07 0)
(0.313296 -2.47965e-07 0)
(0.313296 -1.70572e-07 0)
(0.313296 -8.7916e-08 0)
(0.313296 -2.27911e-09 0)
(0.313296 8.56636e-08 0)
(0.313296 1.76686e-07 0)
(0.313296 2.72626e-07 0)
(0.313296 3.75898e-07 0)
(0.313296 4.88878e-07 0)
(0.313296 6.13017e-07 0)
(0.313296 7.47285e-07 0)
(0.313296 8.87171e-07 0)
(0.313296 1.02366e-06 0)
(0.313296 1.18004e-06 0)
(0.313296 1.2941e-06 0)
(0.362319 -2.50315e-07 0)
(0.362318 -2.64383e-07 0)
(0.362318 -2.56692e-07 0)
(0.362318 -2.24584e-07 0)
(0.362318 -1.78958e-07 0)
(0.362318 -1.23133e-07 0)
(0.362318 -5.94887e-08 0)
(0.362318 9.42769e-09 0)
(0.362317 8.2059e-08 0)
(0.362317 1.58032e-07 0)
(0.362317 2.38115e-07 0)
(0.362317 3.23996e-07 0)
(0.362317 4.17736e-07 0)
(0.362317 5.21142e-07 0)
(0.362317 6.35157e-07 0)
(0.362317 7.58934e-07 0)
(0.362317 8.88406e-07 0)
(0.362317 1.01555e-06 0)
(0.362317 1.16521e-06 0)
(0.362317 1.28083e-06 0)
(0.411653 -5.08395e-08 0)
(0.411653 -6.38748e-08 0)
(0.411652 -6.34698e-08 0)
(0.411652 -3.77366e-08 0)
(0.411652 -3.97503e-09 0)
(0.411652 3.60782e-08 0)
(0.411652 8.14226e-08 0)
(0.411652 1.3096e-07 0)
(0.411651 1.84174e-07 0)
(0.411651 2.41237e-07 0)
(0.411651 3.03011e-07 0)
(0.411651 3.71059e-07 0)
(0.411651 4.47209e-07 0)
(0.411651 5.33021e-07 0)
(0.411651 6.29154e-07 0)
(0.411651 7.35046e-07 0)
(0.411651 8.47699e-07 0)
(0.411651 9.60871e-07 0)
(0.411651 1.10047e-06 0)
(0.411651 1.21624e-06 0)
(0.461316 1.66845e-07 0)
(0.461316 1.55867e-07 0)
(0.461315 1.49582e-07 0)
(0.461315 1.69334e-07 0)
(0.461315 1.90717e-07 0)
(0.461315 2.13265e-07 0)
(0.461315 2.37558e-07 0)
(0.461314 2.64142e-07 0)
(0.461314 2.93749e-07 0)
(0.461314 3.2729e-07 0)
(0.461314 3.65861e-07 0)
(0.461314 4.10883e-07 0)
(0.461314 4.6397e-07 0)
(0.461314 5.26579e-07 0)
(0.461314 5.995e-07 0)
(0.461314 6.82664e-07 0)
(0.461314 7.74385e-07 0)
(0.461314 8.7045e-07 0)
(0.461314 9.97591e-07 0)
(0.461315 1.11149e-06 0)
(0.511316 3.84188e-07 0)
(0.511316 3.75448e-07 0)
(0.511316 3.62853e-07 0)
(0.511315 3.76555e-07 0)
(0.511315 3.85418e-07 0)
(0.511315 3.90017e-07 0)
(0.511315 3.92393e-07 0)
(0.511315 3.947e-07 0)
(0.511315 3.98949e-07 0)
(0.511315 4.06872e-07 0)
(0.511314 4.19954e-07 0)
(0.511314 4.39533e-07 0)
(0.511314 4.67006e-07 0)
(0.511314 5.0374e-07 0)
(0.511314 5.50815e-07 0)
(0.511315 6.08854e-07 0)
(0.511315 6.77559e-07 0)
(0.511315 7.54796e-07 0)
(0.511315 8.67836e-07 0)
(0.511315 9.78193e-07 0)
(0.561653 5.82242e-07 0)
(0.561653 5.76005e-07 0)
(0.561653 5.5666e-07 0)
(0.561653 5.638e-07 0)
(0.561653 5.60129e-07 0)
(0.561653 5.47368e-07 0)
(0.561652 5.28668e-07 0)
(0.561652 5.07581e-07 0)
(0.561652 4.87235e-07 0)
(0.561652 4.70117e-07 0)
(0.561652 4.58145e-07 0)
(0.561652 4.52702e-07 0)
(0.561652 4.54968e-07 0)
(0.561652 4.66141e-07 0)
(0.561652 4.87507e-07 0)
(0.561652 5.20415e-07 0)
(0.561652 5.65948e-07 0)
(0.561653 6.24121e-07 0)
(0.561653 7.22173e-07 0)
(0.561653 8.28423e-07 0)
(0.61232 7.43204e-07 0)
(0.612319 7.39345e-07 0)
(0.612319 7.12339e-07 0)
(0.612319 7.11874e-07 0)
(0.612319 6.95803e-07 0)
(0.612319 6.67137e-07 0)
(0.612319 6.29744e-07 0)
(0.612319 5.88249e-07 0)
(0.612319 5.46542e-07 0)
(0.612319 5.07659e-07 0)
(0.612319 4.73843e-07 0)
(0.612319 4.46581e-07 0)
(0.612319 4.2684e-07 0)
(0.612319 4.15522e-07 0)
(0.612319 4.13893e-07 0)
(0.612319 4.23902e-07 0)
(0.612319 4.47995e-07 0)
(0.612319 4.88435e-07 0)
(0.612319 5.71956e-07 0)
(0.612319 6.73794e-07 0)
(0.663298 8.51284e-07 0)
(0.663298 8.48156e-07 0)
(0.663298 8.12554e-07 0)
(0.663298 8.03124e-07 0)
(0.663298 7.75337e-07 0)
(0.663298 7.3332e-07 0)
(0.663298 6.81221e-07 0)
(0.663298 6.24258e-07 0)
(0.663298 5.66756e-07 0)
(0.663298 5.11958e-07 0)
(0.663298 4.6217e-07 0)
(0.663298 4.18818e-07 0)
(0.663298 3.82566e-07 0)
(0.663298 3.53915e-07 0)
(0.663298 3.33952e-07 0)
(0.663298 3.25139e-07 0)
(0.663298 3.31312e-07 0)
(0.663298 3.5677e-07 0)
(0.663298 4.27601e-07 0)
(0.663298 5.24607e-07 0)
(0.714565 8.92955e-07 0)
(0.714565 8.88181e-07 0)
(0.714565 8.43017e-07 0)
(0.714565 8.23574e-07 0)
(0.714565 7.85836e-07 0)
(0.714565 7.34483e-07 0)
(0.714565 6.73506e-07 0)
(0.714565 6.07865e-07 0)
(0.714565 5.41993e-07 0)
(0.714565 4.79082e-07 0)
(0.714565 4.21216e-07 0)
(0.714565 3.69374e-07 0)
(0.714565 3.23684e-07 0)
(0.714565 2.84232e-07 0)
(0.714565 2.52001e-07 0)
(0.714565 2.29979e-07 0)
(0.714566 2.23214e-07 0)
(0.714566 2.37428e-07 0)
(0.714566 2.97526e-07 0)
(0.714566 3.89637e-07 0)
(0.766088 8.58708e-07 0)
(0.766088 8.49943e-07 0)
(0.766088 7.9479e-07 0)
(0.766089 7.65441e-07 0)
(0.766089 7.21302e-07 0)
(0.766089 6.66525e-07 0)
(0.766089 6.04078e-07 0)
(0.766089 5.38107e-07 0)
(0.766089 4.72604e-07 0)
(0.766089 4.10463e-07 0)
(0.766089 3.53241e-07 0)
(0.766089 3.01107e-07 0)
(0.766089 2.53564e-07 0)
(0.766089 2.10619e-07 0)
(0.76609 1.73448e-07 0)
(0.76609 1.45065e-07 0)
(0.76609 1.30568e-07 0)
(0.76609 1.3698e-07 0)
(0.76609 1.89088e-07 0)
(0.76609 2.79709e-07 0)
(0.817831 7.42417e-07 0)
(0.817831 7.28574e-07 0)
(0.817831 6.65246e-07 0)
(0.817832 6.28951e-07 0)
(0.817832 5.84255e-07 0)
(0.817832 5.3372e-07 0)
(0.817832 4.7834e-07 0)
(0.817832 4.21226e-07 0)
(0.817832 3.65399e-07 0)
(0.817832 3.12838e-07 0)
(0.817833 2.64216e-07 0)
(0.817833 2.1923e-07 0)
(0.817833 1.77522e-07 0)
(0.817833 1.39048e-07 0)
(0.817833 1.04071e-07 0)
(0.817833 7.51636e-08 0)
(0.817833 5.85536e-08 0)
(0.817833 6.257e-08 0)
(0.817833 1.09967e-07 0)
(0.817833 1.96922e-07 0)
(0.86975 5.53033e-07 0)
(0.86975 5.29703e-07 0)
(0.86975 4.64547e-07 0)
(0.869751 4.28181e-07 0)
(0.869751 3.91392e-07 0)
(0.869751 3.53525e-07 0)
(0.869751 3.13726e-07 0)
(0.869751 2.73659e-07 0)
(0.869752 2.34884e-07 0)
(0.869752 1.98448e-07 0)
(0.869752 1.64824e-07 0)
(0.869752 1.3358e-07 0)
(0.869752 1.03883e-07 0)
(0.869752 7.56853e-08 0)
(0.869752 4.94317e-08 0)
(0.869752 2.62745e-08 0)
(0.869752 1.1701e-08 0)
(0.869752 1.69321e-08 0)
(0.869752 6.3986e-08 0)
(0.869752 1.55038e-07 0)
(0.921798 2.98226e-07 0)
(0.921798 2.81652e-07 0)
(0.921798 2.26922e-07 0)
(0.921798 2.00556e-07 0)
(0.921799 1.79953e-07 0)
(0.921799 1.60857e-07 0)
(0.921799 1.4138e-07 0)
(0.921799 1.2222e-07 0)
(0.921799 1.03904e-07 0)
(0.921799 8.66701e-08 0)
(0.921799 7.0649e-08 0)
(0.9218 5.56364e-08 0)
(0.9218 4.13823e-08 0)
(0.9218 2.75813e-08 0)
(0.9218 1.35838e-08 0)
(0.9218 4.44657e-10 0)
(0.9218 -7.38901e-09 0)
(0.9218 2.19932e-10 0)
(0.9218 4.88542e-08 0)
(0.921799 1.28221e-07 0)
(0.973924 9.46271e-08 0)
(0.973924 7.16222e-08 0)
(0.973924 5.36427e-08 0)
(0.973924 4.42889e-08 0)
(0.973924 3.86033e-08 0)
(0.973925 3.39107e-08 0)
(0.973925 2.94957e-08 0)
(0.973925 2.54214e-08 0)
(0.973925 2.13505e-08 0)
(0.973925 1.72061e-08 0)
(0.973925 1.34795e-08 0)
(0.973925 1.02905e-08 0)
(0.973925 7.20851e-09 0)
(0.973925 4.00343e-09 0)
(0.973925 1.5276e-10 0)
(0.973925 -4.14167e-09 0)
(0.973925 -6.08553e-09 0)
(0.973925 -1.50865e-09 0)
(0.973925 2.06456e-08 0)
(0.973925 6.40734e-08 0)
)
;

boundaryField
{
    movingWall
    {
        type            fixedValue;
        value           uniform (1 0 0);
    }
    bottomWall
    {
        type            noSlip;
    }
    leftSide
    {
        type            zeroGradient;
    }
    rightSide
    {
        type            zeroGradient;
    }
    frontAndBack
    {
        type            empty;
    }
}


// ************************************************************************* //
