/*--------------------------------*- C++ -*----------------------------------*\
| =========                 |                                                 |
| \\      /  F ield         | OpenFOAM: The Open Source CFD Toolbox           |
|  \\    /   O peration     | Version:  v1906                                 |
|   \\  /    A nd           | Web:      www.OpenFOAM.com                      |
|    \\/     M anipulation  |                                                 |
\*---------------------------------------------------------------------------*/
FoamFile
{
    version     2.0;
    format      ascii;
    class       volScalarField;
    location    "0.55";
    object      p;
}
// * * * * * * * * * * * * * * * * * * * * * * * * * * * * * * * * * * * * * //

dimensions      [0 2 -2 0 0 0 0];


internalField   nonuniform List<scalar> 
1600
(
-8.86638e-05
-48.8276
-78.8487
-93.4211
-101.525
-106.571
-109.826
-112.055
-113.712
-115.028
-116.122
-117.055
-117.869
-118.589
-119.234
-119.818
-120.351
-120.841
-121.296
-121.72
-122.117
-122.493
-122.849
-123.189
-123.514
-123.827
-124.129
-124.422
-124.708
-124.987
-125.261
-125.53
-125.797
-126.061
-126.323
-126.584
-126.844
-127.102
-127.362
-127.572
-42.3507
-63.5271
-80.8446
-91.5379
-98.6396
-103.744
-107.425
-110.11
-112.146
-113.753
-115.065
-116.164
-117.105
-117.925
-118.651
-119.3
-119.888
-120.425
-120.919
-121.377
-121.805
-122.206
-122.586
-122.946
-123.29
-123.619
-123.937
-124.244
-124.542
-124.833
-125.118
-125.397
-125.673
-125.945
-126.215
-126.483
-126.748
-127.01
-127.28
-127.531
-67.121
-74.9449
-84.1304
-91.8511
-97.8852
-102.586
-106.2
-108.969
-111.133
-112.87
-114.296
-115.494
-116.517
-117.405
-118.188
-118.885
-119.514
-120.086
-120.61
-121.094
-121.545
-121.967
-122.365
-122.741
-123.099
-123.442
-123.772
-124.09
-124.398
-124.698
-124.991
-125.279
-125.562
-125.842
-126.119
-126.394
-126.668
-126.941
-127.227
-127.526
-79.6675
-82.7888
-87.9854
-93.5122
-98.3598
-102.382
-105.661
-108.311
-110.463
-112.232
-113.708
-114.958
-116.031
-116.966
-117.79
-118.524
-119.184
-119.784
-120.332
-120.839
-121.308
-121.747
-122.16
-122.55
-122.921
-123.275
-123.614
-123.941
-124.258
-124.566
-124.867
-125.161
-125.451
-125.738
-126.022
-126.306
-126.591
-126.878
-127.18
-127.525
-87.2953
-88.7555
-91.8535
-95.6912
-99.3893
-102.669
-105.507
-107.928
-109.979
-111.717
-113.198
-114.471
-115.576
-116.544
-117.4
-118.164
-118.852
-119.476
-120.047
-120.574
-121.062
-121.517
-121.944
-122.347
-122.73
-123.094
-123.443
-123.779
-124.104
-124.419
-124.727
-125.028
-125.324
-125.617
-125.909
-126.202
-126.497
-126.8
-127.116
-127.496
-92.5617
-93.3648
-95.2885
-97.9335
-100.704
-103.322
-105.711
-107.846
-109.727
-111.37
-112.807
-114.065
-115.172
-116.153
-117.026
-117.811
-118.519
-119.164
-119.754
-120.298
-120.802
-121.272
-121.712
-122.128
-122.521
-122.895
-123.254
-123.598
-123.93
-124.252
-124.565
-124.872
-125.174
-125.473
-125.772
-126.071
-126.376
-126.691
-127.015
-127.42
-96.4342
-96.933
-98.19
-100.048
-102.131
-104.21
-106.192
-108.032
-109.707
-111.216
-112.566
-113.773
-114.853
-115.822
-116.695
-117.485
-118.203
-118.859
-119.461
-120.018
-120.534
-121.016
-121.468
-121.893
-122.296
-122.679
-123.045
-123.396
-123.734
-124.061
-124.38
-124.691
-124.998
-125.301
-125.603
-125.907
-126.217
-126.538
-126.864
-127.28
-99.4222
-99.7598
-100.626
-101.969
-103.553
-105.206
-106.84
-108.407
-109.875
-111.232
-112.473
-113.605
-114.635
-115.572
-116.426
-117.206
-117.92
-118.577
-119.184
-119.746
-120.269
-120.758
-121.217
-121.649
-122.059
-122.448
-122.819
-123.175
-123.518
-123.849
-124.171
-124.485
-124.794
-125.098
-125.401
-125.706
-126.015
-126.337
-126.657
-127.067
-101.816
-102.058
-102.684
-103.681
-104.902
-106.224
-107.572
-108.9
-110.176
-111.382
-112.508
-113.553
-114.518
-115.408
-116.229
-116.986
-117.685
-118.333
-118.935
-119.495
-120.018
-120.509
-120.97
-121.406
-121.818
-122.211
-122.585
-122.943
-123.288
-123.621
-123.943
-124.257
-124.565
-124.868
-125.168
-125.469
-125.772
-126.086
-126.392
-126.782
-103.785
-103.967
-104.435
-105.195
-106.152
-107.217
-108.333
-109.458
-110.564
-111.629
-112.641
-113.596
-114.49
-115.325
-116.104
-116.829
-117.505
-118.135
-118.724
-119.275
-119.793
-120.279
-120.738
-121.172
-121.584
-121.976
-122.35
-122.707
-123.051
-123.383
-123.703
-124.015
-124.318
-124.616
-124.91
-125.203
-125.494
-125.793
-126.079
-126.436
-105.439
-105.579
-105.94
-106.533
-107.294
-108.161
-109.09
-110.046
-111.003
-111.941
-112.847
-113.713
-114.536
-115.313
-116.044
-116.732
-117.378
-117.985
-118.556
-119.093
-119.599
-120.076
-120.528
-120.957
-121.364
-121.751
-122.122
-122.476
-122.816
-123.143
-123.459
-123.765
-124.062
-124.352
-124.636
-124.916
-125.191
-125.469
-125.73
-126.047
-106.849
-106.96
-107.245
-107.717
-108.332
-109.046
-109.824
-110.639
-111.469
-112.294
-113.103
-113.886
-114.639
-115.357
-116.04
-116.688
-117.301
-117.88
-118.429
-118.947
-119.438
-119.903
-120.345
-120.764
-121.163
-121.544
-121.907
-122.255
-122.589
-122.909
-123.218
-123.516
-123.804
-124.083
-124.354
-124.619
-124.875
-125.13
-125.363
-125.635
-108.068
-108.158
-108.387
-108.769
-109.273
-109.867
-110.524
-111.222
-111.943
-112.67
-113.391
-114.098
-114.784
-115.446
-116.081
-116.688
-117.266
-117.816
-118.34
-118.837
-119.31
-119.76
-120.188
-120.596
-120.985
-121.356
-121.711
-122.05
-122.375
-122.687
-122.987
-123.275
-123.552
-123.818
-124.075
-124.322
-124.559
-124.788
-124.994
-125.22
-109.133
-109.206
-109.394
-109.709
-110.128
-110.626
-111.185
-111.786
-112.414
-113.056
-113.699
-114.337
-114.962
-115.57
-116.158
-116.724
-117.267
-117.787
-118.285
-118.76
-119.213
-119.646
-120.059
-120.454
-120.83
-121.19
-121.534
-121.863
-122.178
-122.48
-122.769
-123.046
-123.311
-123.564
-123.805
-124.035
-124.251
-124.456
-124.635
-124.82
-110.072
-110.133
-110.289
-110.552
-110.903
-111.326
-111.805
-112.325
-112.875
-113.442
-114.017
-114.592
-115.16
-115.718
-116.262
-116.789
-117.298
-117.788
-118.259
-118.711
-119.144
-119.558
-119.955
-120.335
-120.698
-121.046
-121.378
-121.696
-122
-122.29
-122.568
-122.832
-123.084
-123.324
-123.55
-123.762
-123.959
-124.141
-124.297
-124.446
-110.906
-110.958
-111.089
-111.311
-111.609
-111.971
-112.384
-112.837
-113.32
-113.823
-114.338
-114.856
-115.374
-115.885
-116.387
-116.876
-117.352
-117.813
-118.258
-118.686
-119.098
-119.494
-119.874
-120.238
-120.587
-120.922
-121.242
-121.547
-121.84
-122.119
-122.384
-122.637
-122.876
-123.101
-123.313
-123.509
-123.688
-123.85
-123.986
-124.106
-111.653
-111.696
-111.808
-111.997
-112.253
-112.565
-112.924
-113.321
-113.748
-114.195
-114.656
-115.125
-115.596
-116.064
-116.527
-116.982
-117.426
-117.858
-118.277
-118.682
-119.074
-119.451
-119.814
-120.162
-120.497
-120.817
-121.124
-121.418
-121.698
-121.965
-122.219
-122.459
-122.686
-122.898
-123.096
-123.277
-123.441
-123.586
-123.705
-123.804
-112.324
-112.361
-112.458
-112.621
-112.842
-113.113
-113.427
-113.777
-114.155
-114.554
-114.969
-115.393
-115.822
-116.252
-116.679
-117.101
-117.515
-117.919
-118.314
-118.696
-119.067
-119.426
-119.771
-120.104
-120.424
-120.731
-121.025
-121.306
-121.574
-121.829
-122.071
-122.3
-122.515
-122.715
-122.9
-123.068
-123.218
-123.349
-123.455
-123.538
-112.931
-112.963
-113.047
-113.189
-113.382
-113.619
-113.895
-114.205
-114.542
-114.9
-115.274
-115.658
-116.05
-116.444
-116.838
-117.229
-117.615
-117.994
-118.364
-118.725
-119.076
-119.416
-119.745
-120.062
-120.367
-120.661
-120.942
-121.211
-121.467
-121.711
-121.941
-122.159
-122.362
-122.551
-122.725
-122.882
-123.021
-123.14
-123.236
-123.308
-113.482
-113.51
-113.583
-113.708
-113.877
-114.087
-114.331
-114.607
-114.908
-115.23
-115.568
-115.918
-116.276
-116.638
-117.002
-117.365
-117.724
-118.079
-118.427
-118.767
-119.099
-119.421
-119.733
-120.035
-120.326
-120.606
-120.874
-121.131
-121.376
-121.608
-121.828
-122.035
-122.228
-122.406
-122.57
-122.717
-122.846
-122.957
-123.046
-123.11
-113.984
-114.009
-114.074
-114.183
-114.333
-114.519
-114.737
-114.984
-115.254
-115.545
-115.852
-116.171
-116.499
-116.832
-117.169
-117.505
-117.84
-118.172
-118.499
-118.819
-119.133
-119.438
-119.734
-120.021
-120.298
-120.565
-120.821
-121.066
-121.299
-121.521
-121.731
-121.927
-122.111
-122.28
-122.434
-122.573
-122.695
-122.798
-122.881
-122.941
-114.443
-114.465
-114.523
-114.62
-114.754
-114.92
-115.115
-115.337
-115.581
-115.845
-116.124
-116.416
-116.717
-117.024
-117.336
-117.649
-117.961
-118.272
-118.579
-118.88
-119.176
-119.465
-119.746
-120.019
-120.282
-120.537
-120.781
-121.014
-121.237
-121.449
-121.648
-121.836
-122.01
-122.171
-122.317
-122.449
-122.564
-122.662
-122.741
-122.799
-114.864
-114.884
-114.935
-115.023
-115.142
-115.292
-115.468
-115.668
-115.89
-116.13
-116.385
-116.652
-116.929
-117.214
-117.502
-117.794
-118.086
-118.376
-118.665
-118.949
-119.228
-119.502
-119.768
-120.027
-120.278
-120.52
-120.753
-120.975
-121.188
-121.39
-121.58
-121.759
-121.925
-122.078
-122.217
-122.342
-122.452
-122.546
-122.622
-122.678
-115.251
-115.269
-115.315
-115.394
-115.502
-115.637
-115.796
-115.978
-116.18
-116.4
-116.634
-116.88
-117.136
-117.399
-117.667
-117.939
-118.212
-118.485
-118.756
-119.024
-119.288
-119.546
-119.799
-120.045
-120.284
-120.514
-120.736
-120.948
-121.151
-121.343
-121.525
-121.696
-121.854
-122
-122.134
-122.253
-122.358
-122.448
-122.522
-122.578
-115.607
-115.623
-115.665
-115.736
-115.834
-115.957
-116.103
-116.269
-116.454
-116.655
-116.871
-117.098
-117.335
-117.58
-117.83
-118.084
-118.339
-118.596
-118.851
-119.104
-119.353
-119.598
-119.838
-120.072
-120.299
-120.518
-120.729
-120.932
-121.126
-121.309
-121.483
-121.646
-121.797
-121.937
-122.065
-122.179
-122.28
-122.368
-122.44
-122.496
-115.935
-115.95
-115.988
-116.053
-116.143
-116.255
-116.388
-116.541
-116.712
-116.897
-117.097
-117.308
-117.528
-117.756
-117.989
-118.227
-118.467
-118.708
-118.949
-119.188
-119.424
-119.656
-119.884
-120.106
-120.322
-120.531
-120.732
-120.926
-121.111
-121.286
-121.452
-121.608
-121.753
-121.887
-122.01
-122.12
-122.218
-122.302
-122.373
-122.43
-116.238
-116.251
-116.286
-116.346
-116.429
-116.532
-116.655
-116.796
-116.954
-117.126
-117.312
-117.508
-117.714
-117.927
-118.146
-118.369
-118.595
-118.822
-119.049
-119.275
-119.499
-119.719
-119.936
-120.147
-120.353
-120.552
-120.745
-120.929
-121.106
-121.274
-121.433
-121.582
-121.721
-121.85
-121.967
-122.074
-122.168
-122.251
-122.321
-122.378
-116.517
-116.529
-116.562
-116.617
-116.694
-116.79
-116.904
-117.035
-117.182
-117.343
-117.516
-117.7
-117.892
-118.092
-118.298
-118.508
-118.721
-118.936
-119.151
-119.365
-119.578
-119.787
-119.993
-120.195
-120.391
-120.581
-120.765
-120.941
-121.11
-121.271
-121.423
-121.566
-121.7
-121.824
-121.937
-122.04
-122.132
-122.213
-122.281
-122.339
-116.774
-116.786
-116.817
-116.868
-116.94
-117.03
-117.136
-117.259
-117.397
-117.547
-117.71
-117.883
-118.064
-118.252
-118.447
-118.645
-118.847
-119.051
-119.255
-119.458
-119.66
-119.86
-120.056
-120.248
-120.435
-120.617
-120.793
-120.962
-121.124
-121.278
-121.424
-121.561
-121.689
-121.808
-121.918
-122.017
-122.107
-122.186
-122.253
-122.311
-117.012
-117.023
-117.051
-117.1
-117.168
-117.252
-117.353
-117.469
-117.598
-117.741
-117.894
-118.057
-118.229
-118.407
-118.592
-118.78
-118.972
-119.165
-119.359
-119.553
-119.746
-119.936
-120.123
-120.307
-120.486
-120.66
-120.828
-120.99
-121.145
-121.293
-121.433
-121.565
-121.688
-121.803
-121.909
-122.005
-122.092
-122.17
-122.237
-122.295
-117.23
-117.241
-117.268
-117.314
-117.378
-117.459
-117.554
-117.664
-117.788
-117.923
-118.069
-118.224
-118.387
-118.557
-118.733
-118.912
-119.095
-119.279
-119.465
-119.65
-119.834
-120.016
-120.195
-120.371
-120.542
-120.709
-120.87
-121.025
-121.174
-121.316
-121.45
-121.577
-121.696
-121.807
-121.909
-122.003
-122.088
-122.164
-122.23
-122.288
-117.43
-117.441
-117.467
-117.511
-117.573
-117.65
-117.742
-117.847
-117.965
-118.095
-118.234
-118.383
-118.539
-118.702
-118.87
-119.042
-119.216
-119.393
-119.571
-119.748
-119.924
-120.099
-120.271
-120.439
-120.604
-120.763
-120.918
-121.067
-121.21
-121.346
-121.476
-121.598
-121.713
-121.82
-121.919
-122.01
-122.092
-122.167
-122.232
-122.29
-117.613
-117.623
-117.649
-117.692
-117.752
-117.827
-117.916
-118.018
-118.132
-118.257
-118.392
-118.535
-118.685
-118.842
-119.003
-119.169
-119.337
-119.507
-119.677
-119.848
-120.017
-120.185
-120.35
-120.512
-120.67
-120.824
-120.972
-121.116
-121.253
-121.384
-121.509
-121.626
-121.737
-121.84
-121.936
-122.025
-122.105
-122.179
-122.243
-122.301
-117.779
-117.789
-117.814
-117.857
-117.916
-117.99
-118.077
-118.177
-118.288
-118.41
-118.541
-118.68
-118.825
-118.977
-119.133
-119.293
-119.456
-119.62
-119.784
-119.949
-120.112
-120.274
-120.433
-120.589
-120.741
-120.889
-121.032
-121.17
-121.302
-121.429
-121.549
-121.662
-121.769
-121.869
-121.962
-122.047
-122.126
-122.198
-122.261
-122.32
-117.928
-117.938
-117.963
-118.007
-118.066
-118.139
-118.226
-118.324
-118.434
-118.554
-118.682
-118.818
-118.96
-119.108
-119.26
-119.416
-119.573
-119.733
-119.892
-120.051
-120.21
-120.366
-120.52
-120.67
-120.817
-120.96
-121.098
-121.23
-121.358
-121.48
-121.595
-121.705
-121.808
-121.904
-121.994
-122.077
-122.154
-122.224
-122.287
-122.345
-118.06
-118.07
-118.096
-118.141
-118.201
-118.275
-118.362
-118.461
-118.57
-118.689
-118.816
-118.95
-119.09
-119.235
-119.384
-119.536
-119.69
-119.845
-120.001
-120.155
-120.309
-120.461
-120.609
-120.755
-120.897
-121.035
-121.168
-121.297
-121.419
-121.537
-121.648
-121.754
-121.853
-121.946
-122.033
-122.114
-122.188
-122.257
-122.319
-122.376
-118.175
-118.185
-118.213
-118.259
-118.322
-118.398
-118.487
-118.587
-118.697
-118.816
-118.943
-119.076
-119.215
-119.358
-119.505
-119.655
-119.806
-119.958
-120.109
-120.261
-120.41
-120.558
-120.702
-120.844
-120.981
-121.115
-121.244
-121.367
-121.486
-121.599
-121.707
-121.808
-121.904
-121.994
-122.078
-122.156
-122.228
-122.295
-122.356
-122.413
-118.271
-118.283
-118.314
-118.364
-118.43
-118.51
-118.602
-118.704
-118.817
-118.937
-119.065
-119.198
-119.337
-119.48
-119.625
-119.773
-119.922
-120.072
-120.221
-120.369
-120.515
-120.659
-120.8
-120.937
-121.071
-121.2
-121.325
-121.445
-121.559
-121.668
-121.772
-121.87
-121.962
-122.048
-122.129
-122.205
-122.274
-122.339
-122.398
-122.455
-118.346
-118.363
-118.4
-118.457
-118.53
-118.616
-118.713
-118.82
-118.936
-119.06
-119.19
-119.325
-119.465
-119.608
-119.754
-119.901
-120.049
-120.196
-120.343
-120.489
-120.632
-120.773
-120.91
-121.044
-121.174
-121.299
-121.42
-121.536
-121.646
-121.751
-121.85
-121.944
-122.032
-122.115
-122.192
-122.264
-122.331
-122.394
-122.45
-122.505
-118.386
-118.409
-118.455
-118.521
-118.601
-118.693
-118.797
-118.909
-119.03
-119.157
-119.291
-119.429
-119.571
-119.715
-119.861
-120.009
-120.157
-120.304
-120.45
-120.594
-120.735
-120.874
-121.009
-121.14
-121.267
-121.389
-121.507
-121.619
-121.726
-121.827
-121.923
-122.013
-122.098
-122.178
-122.252
-122.321
-122.385
-122.445
-122.5
-122.551
)
;

boundaryField
{
    movingWall
    {
        type            zeroGradient;
    }
    bottomWall
    {
        type            zeroGradient;
    }
    leftSide
    {
        type            zeroGradient;
    }
    rightSide
    {
        type            zeroGradient;
    }
    frontAndBack
    {
        type            empty;
    }
}


// ************************************************************************* //
