/*--------------------------------*- C++ -*----------------------------------*\
| =========                 |                                                 |
| \\      /  F ield         | OpenFOAM: The Open Source CFD Toolbox           |
|  \\    /   O peration     | Version:  v1906                                 |
|   \\  /    A nd           | Web:      www.OpenFOAM.com                      |
|    \\/     M anipulation  |                                                 |
\*---------------------------------------------------------------------------*/
FoamFile
{
    version     2.0;
    format      ascii;
    class       surfaceScalarField;
    location    "0.55";
    object      phi;
}
// * * * * * * * * * * * * * * * * * * * * * * * * * * * * * * * * * * * * * //

dimensions      [0 3 -1 0 0 0 0];
oriented        oriented;


internalField   nonuniform List<scalar> 
3120
(
0.000206239
4.37607e-05
0.000158186
4.80538e-05
0.000122477
3.57084e-05
9.75337e-05
2.49436e-05
8.05646e-05
1.69691e-05
6.89734e-05
1.15912e-05
6.0809e-05
8.16437e-06
5.48068e-05
6.00225e-06
5.01985e-05
4.60827e-06
4.65246e-05
3.67389e-06
4.35068e-05
3.01785e-06
4.09707e-05
2.5361e-06
3.8802e-05
2.16869e-06
3.6922e-05
1.87996e-06
3.52744e-05
1.64765e-06
3.38172e-05
1.45718e-06
3.25186e-05
1.29861e-06
3.13538e-05
1.16484e-06
3.03031e-05
1.05072e-06
2.93507e-05
9.52369e-07
2.84838e-05
8.66847e-07
2.7692e-05
7.91856e-07
2.69664e-05
7.2559e-07
2.62998e-05
6.6661e-07
2.5686e-05
6.13757e-07
2.51199e-05
5.66087e-07
2.45971e-05
5.22828e-07
2.41138e-05
4.83345e-07
2.36667e-05
4.47119e-07
2.32529e-05
4.13732e-07
2.28701e-05
3.82866e-07
2.25157e-05
3.54315e-07
2.21877e-05
3.28024e-07
2.18835e-05
3.04193e-07
2.16e-05
2.83534e-07
2.13321e-05
2.67848e-07
2.10714e-05
2.60779e-07
2.08017e-05
2.69655e-07
2.04854e-05
3.16286e-07
4.17646e-07
0.000263187
3.05734e-05
0.000258016
5.32249e-05
0.000240816
5.29085e-05
0.000219922
4.58379e-05
0.000199286
3.76044e-05
0.000180835
3.00422e-05
0.000165129
2.38704e-05
0.000152004
1.91276e-05
0.000141054
1.55581e-05
0.000131858
1.287e-05
0.000124054
1.08221e-05
0.000117355
9.23517e-06
0.000111541
7.98235e-06
0.000106446
6.97533e-06
0.000101941
6.15247e-06
9.79279e-05
5.4702e-06
9.43294e-05
4.89716e-06
9.10839e-05
4.41034e-06
8.8142e-05
3.99252e-06
8.54638e-05
3.63061e-06
8.30162e-05
3.31449e-06
8.07718e-05
3.03623e-06
7.87079e-05
2.78952e-06
7.68052e-05
2.5693e-06
7.50475e-05
2.37145e-06
7.34209e-05
2.19263e-06
7.19137e-05
2.03006e-06
7.05156e-05
1.88145e-06
6.92178e-05
1.74492e-06
6.80126e-05
1.61893e-06
6.68931e-05
1.5023e-06
6.58533e-05
1.3942e-06
6.4887e-05
1.29427e-06
6.39883e-05
1.20287e-06
6.31504e-05
1.1215e-06
6.23643e-05
1.05392e-06
6.16174e-05
1.00771e-06
6.08921e-05
9.94919e-07
6.01714e-05
1.03704e-06
1.17197e-06
0.000262609
1.79641e-05
0.000274173
4.16613e-05
0.0002766
5.04814e-05
0.000271592
5.08457e-05
0.000261871
4.73251e-05
0.000249733
4.21802e-05
0.000236859
3.67445e-05
0.000224274
3.17126e-05
0.000212499
2.73339e-05
0.000201736
2.3633e-05
0.000192012
2.05455e-05
0.000183268
1.79793e-05
0.000175408
1.58421e-05
0.000168331
1.40527e-05
0.000161939
1.25439e-05
0.000156148
1.1262e-05
0.000150881
1.01641e-05
0.000146075
9.2165e-06
0.000141674
8.39261e-06
0.000137634
7.67114e-06
0.000133913
7.0351e-06
0.000130479
6.47077e-06
0.000127301
5.96699e-06
0.000124356
5.51463e-06
0.000121621
5.10613e-06
0.000119079
4.73522e-06
0.000116712
4.39667e-06
0.000114507
4.08609e-06
0.000112453
3.79983e-06
0.000110537
3.53486e-06
0.00010875
3.28877e-06
0.000107085
3.05976e-06
0.000105532
2.84683e-06
0.000104085
2.64998e-06
0.000102736
2.47077e-06
0.000101476
2.31333e-06
0.000100298
2.18598e-06
9.91915e-05
2.10141e-06
9.81566e-05
2.0719e-06
2.14818e-06
0.000257134
1.08305e-05
0.000269219
2.95759e-05
0.000278763
4.09378e-05
0.000283574
4.60347e-05
0.00028384
4.70585e-05
0.00028046
4.55606e-05
0.000274531
4.26735e-05
0.00026705
3.91931e-05
0.000258782
3.56021e-05
0.000250256
3.2159e-05
0.000241814
2.89872e-05
0.000233662
2.61317e-05
0.00022591
2.35943e-05
0.000218608
2.13543e-05
0.00021177
1.93821e-05
0.000205386
1.76455e-05
0.000199437
1.61138e-05
0.000193894
1.47589e-05
0.000188731
1.35561e-05
0.000183918
1.24842e-05
0.000179428
1.15249e-05
0.000175236
1.06627e-05
0.000171319
9.88433e-06
0.000167655
9.17847e-06
0.000164225
8.53553e-06
0.000161013
7.9473e-06
0.000158003
7.40673e-06
0.000155182
6.9078e-06
0.000152536
6.44537e-06
0.000150056
6.01508e-06
0.000147731
5.61333e-06
0.000145554
5.23732e-06
0.000143515
4.88513e-06
0.000141609
4.55597e-06
0.00013983
4.25059e-06
0.000138171
3.97203e-06
0.00013663
3.72661e-06
0.000135206
3.52532e-06
0.000133909
3.3691e-06
3.31471e-06
0.00025373
7.10024e-06
0.000262407
2.08989e-05
0.000271916
3.14295e-05
0.000279808
3.81425e-05
0.000285124
4.17419e-05
0.000287679
4.30061e-05
0.000287729
4.26238e-05
0.000285742
4.11801e-05
0.000282223
3.91206e-05
0.000277628
3.67543e-05
0.00027233
3.42846e-05
0.000266622
3.18399e-05
0.00026072
2.94962e-05
0.000254781
2.72941e-05
0.000248911
2.52516e-05
0.000243184
2.33725e-05
0.000237646
2.1652e-05
0.000232324
2.00808e-05
0.000227233
1.86472e-05
0.000222378
1.7339e-05
0.000217759
1.61439e-05
0.000213372
1.50502e-05
0.000209209
1.4047e-05
0.000205263
1.31246e-05
0.000201525
1.22739e-05
0.000197985
1.14869e-05
0.000194635
1.07566e-05
0.000191466
1.00764e-05
0.000188471
9.44082e-06
0.000185641
8.84486e-06
0.00018297
8.28429e-06
0.000180452
7.75558e-06
0.000178081
7.25605e-06
0.000175853
6.78395e-06
0.000173765
6.33879e-06
0.000171815
5.92181e-06
0.000170006
5.53594e-06
0.000168342
5.18938e-06
0.000166837
4.87363e-06
4.63271e-06
0.00025204
5.05976e-06
0.000257655
1.52844e-05
0.000265018
2.40668e-05
0.000272497
3.0663e-05
0.000279074
3.51653e-05
0.000284189
3.78912e-05
0.000287627
3.91852e-05
0.000289419
3.93886e-05
0.000289731
3.88079e-05
0.000288794
3.76922e-05
0.000286845
3.62333e-05
0.000284111
3.45736e-05
0.000280791
3.2816e-05
0.000277053
3.10326e-05
0.000273033
2.92719e-05
0.00026884
2.75655e-05
0.000264559
2.59325e-05
0.000260256
2.43834e-05
0.000255981
2.29226e-05
0.00025177
2.15505e-05
0.000247649
2.02646e-05
0.000243638
1.90611e-05
0.00023975
1.7935e-05
0.000235994
1.68808e-05
0.000232375
1.5893e-05
0.000228896
1.4966e-05
0.000225558
1.40944e-05
0.000222361
1.3273e-05
0.000219305
1.24971e-05
0.000216388
1.17621e-05
0.000213608
1.10641e-05
0.000210964
1.03993e-05
0.000208455
9.76481e-06
0.000206081
9.15813e-06
0.000203842
8.57754e-06
0.000201742
8.02244e-06
0.000199786
7.49224e-06
0.000197983
6.99166e-06
0.000196349
6.50802e-06
6.04725e-06
0.000251216
3.84354e-06
0.000254833
1.16681e-05
0.0002601
1.8799e-05
0.000266104
2.46598e-05
0.000272111
2.91579e-05
0.000277602
3.23997e-05
0.000282245
3.45424e-05
0.00028587
3.57638e-05
0.000288433
3.6245e-05
0.000289973
3.61525e-05
0.000290577
3.56291e-05
0.000290358
3.47924e-05
0.000289437
3.37369e-05
0.000287933
3.25369e-05
0.000285955
3.12494e-05
0.000283603
2.99175e-05
0.000280963
2.85729e-05
0.000278108
2.72386e-05
0.0002751
2.59306e-05
0.00027199
2.46597e-05
0.000268822
2.34329e-05
0.000265629
2.22539e-05
0.00026244
2.11243e-05
0.000259277
2.00442e-05
0.000256157
1.90126e-05
0.000253096
1.80275e-05
0.000250104
1.70864e-05
0.00024719
1.61866e-05
0.000244362
1.53252e-05
0.000241625
1.44989e-05
0.000238984
1.37047e-05
0.000236444
1.29397e-05
0.000234008
1.22009e-05
0.000231681
1.14856e-05
0.000229467
1.07912e-05
0.000227374
1.01156e-05
0.000225411
9.45553e-06
0.000223591
8.81136e-06
0.000221925
8.17354e-06
7.48752e-06
0.000250791
3.05213e-06
0.00025321
9.24921e-06
0.000256942
1.50676e-05
0.000261492
2.01093e-05
0.000266403
2.42474e-05
0.0002713
2.75021e-05
0.000275899
2.9944e-05
0.000279998
3.16644e-05
0.000283477
3.27662e-05
0.000286277
3.33525e-05
0.000288388
3.35185e-05
0.000289831
3.33486e-05
0.000290653
3.29157e-05
0.000290909
3.2281e-05
0.000290662
3.14957e-05
0.000289978
3.06014e-05
0.00028892
2.96316e-05
0.000287545
2.86131e-05
0.000285909
2.75669e-05
0.000284059
2.65091e-05
0.00028204
2.5452e-05
0.00027989
2.44047e-05
0.00027764
2.33738e-05
0.00027532
2.23639e-05
0.000272955
2.13778e-05
0.000270565
2.04171e-05
0.000268169
1.94825e-05
0.000265782
1.85736e-05
0.000263418
1.76897e-05
0.000261087
1.68295e-05
0.000258801
1.59912e-05
0.000256568
1.51728e-05
0.000254396
1.43719e-05
0.000252296
1.35861e-05
0.000250275
1.28124e-05
0.000248343
1.20475e-05
0.000246512
1.12866e-05
0.000244798
1.0525e-05
0.000243208
9.76334e-06
8.87463e-06
0.000250553
2.49877e-06
0.000252251
7.55161e-06
0.000254946
1.23725e-05
0.000258366
1.66894e-05
0.000262229
2.03846e-05
0.000266287
2.34436e-05
0.000270335
2.58964e-05
0.000274207
2.77924e-05
0.000277781
2.91923e-05
0.000280973
3.01606e-05
0.000283731
3.07599e-05
0.000286032
3.10482e-05
0.00028787
3.10776e-05
0.000289257
3.0894e-05
0.000290215
3.05376e-05
0.000290773
3.00427e-05
0.000290966
2.94386e-05
0.00029083
2.875e-05
0.000290399
2.79973e-05
0.000289711
2.71975e-05
0.000288798
2.63645e-05
0.000287694
2.55094e-05
0.000286426
2.46413e-05
0.000285023
2.3767e-05
0.000283509
2.2892e-05
0.000281906
2.20203e-05
0.000280234
2.11545e-05
0.000278511
2.02967e-05
0.000276753
1.94476e-05
0.000274975
1.86076e-05
0.000273189
1.77763e-05
0.00027141
1.69526e-05
0.000269647
1.6135e-05
0.000267911
1.53212e-05
0.000266216
1.45082e-05
0.000264571
1.36923e-05
0.000262989
1.2868e-05
0.000261489
1.20258e-05
0.000260072
1.118e-05
1.01335e-05
0.000250407
2.09132e-06
0.000251652
6.30694e-06
0.000253656
1.03682e-05
0.000256261
1.40853e-05
0.000259286
1.73592e-05
0.000262568
2.01613e-05
0.000265964
2.25004e-05
0.000269353
2.44038e-05
0.000272636
2.59092e-05
0.000275737
2.70594e-05
0.0002786
2.78974e-05
0.000281184
2.84638e-05
0.000283466
2.87962e-05
0.000285431
2.89285e-05
0.000287078
2.88909e-05
0.000288411
2.87098e-05
0.000289441
2.84086e-05
0.000290183
2.80077e-05
0.000290656
2.75245e-05
0.000290879
2.69741e-05
0.000290874
2.63694e-05
0.000290662
2.57212e-05
0.000290265
2.50386e-05
0.000289703
2.43293e-05
0.000288995
2.35994e-05
0.000288162
2.2854e-05
0.000287219
2.20968e-05
0.000286185
2.13308e-05
0.000285075
2.05581e-05
0.000283902
1.978e-05
0.000282682
1.89969e-05
0.000281426
1.82086e-05
0.000280147
1.7414e-05
0.000278856
1.66115e-05
0.000277567
1.5798e-05
0.000276289
1.49695e-05
0.000275036
1.41211e-05
0.000273824
1.32386e-05
0.000272653
1.23509e-05
1.12049e-05
0.000250311
1.78021e-06
0.000251257
5.36119e-06
0.000252791
8.83358e-06
0.000254815
1.20616e-05
0.00025721
1.49643e-05
0.000259862
1.75089e-05
0.000262671
1.96919e-05
0.000265548
2.15268e-05
0.00026842
2.30375e-05
0.000271226
2.42535e-05
0.000273917
2.52058e-05
0.000276457
2.59244e-05
0.000278815
2.64377e-05
0.000280972
2.67713e-05
0.000282915
2.69485e-05
0.000284635
2.69899e-05
0.00028613
2.69136e-05
0.000287402
2.67358e-05
0.000288455
2.64706e-05
0.000289299
2.61305e-05
0.000289942
2.57263e-05
0.000290396
2.52673e-05
0.000290673
2.47616e-05
0.000290786
2.42163e-05
0.000290748
2.36372e-05
0.000290573
2.30291e-05
0.000290274
2.23962e-05
0.000289863
2.17416e-05
0.000289354
2.10676e-05
0.000288758
2.03761e-05
0.000288087
1.96678e-05
0.000287352
1.8943e-05
0.000286565
1.82009e-05
0.000285737
1.74401e-05
0.000284877
1.66578e-05
0.000283996
1.58499e-05
0.000283105
1.50125e-05
0.000282215
1.41282e-05
0.000281329
1.32374e-05
1.20527e-05
0.000250244
1.53612e-06
0.000250983
4.62186e-06
0.000252189
7.62831e-06
0.000253795
1.04558e-05
0.00025572
1.30392e-05
0.000257883
1.53458e-05
0.000260209
1.73654e-05
0.000262634
1.91024e-05
0.0002651
2.05712e-05
0.000267561
2.1792e-05
0.00026998
2.27874e-05
0.000272323
2.35807e-05
0.000274567
2.41939e-05
0.000276691
2.46476e-05
0.000278679
2.49602e-05
0.000280521
2.51485e-05
0.000282207
2.52271e-05
0.000283734
2.5209e-05
0.000285099
2.51057e-05
0.000286302
2.49273e-05
0.000287346
2.46825e-05
0.000288234
2.43792e-05
0.000288972
2.4024e-05
0.000289565
2.36229e-05
0.000290021
2.31809e-05
0.000290348
2.27022e-05
0.000290554
2.21905e-05
0.000290647
2.16486e-05
0.000290636
2.10788e-05
0.000290529
2.04826e-05
0.000290336
1.98611e-05
0.000290065
1.92144e-05
0.000289724
1.8542e-05
0.000289321
1.78424e-05
0.000288866
1.71133e-05
0.000288365
1.63506e-05
0.000287826
1.55514e-05
0.000287257
1.46971e-05
0.000286659
1.38351e-05
1.26667e-05
0.000250196
1.34042e-06
0.000250787
4.03056e-06
0.000251754
6.66118e-06
0.000253053
9.15737e-06
0.000254625
1.1467e-05
0.000256411
1.35599e-05
0.000258354
1.54223e-05
0.000260403
1.7053e-05
0.000262515
1.84592e-05
0.000264653
1.96544e-05
0.000266785
2.06549e-05
0.000268888
2.14785e-05
0.000270939
2.21428e-05
0.000272922
2.26645e-05
0.000274823
2.30591e-05
0.000276631
2.33406e-05
0.000278337
2.35211e-05
0.000279934
2.36118e-05
0.000281417
2.36222e-05
0.000282784
2.35607e-05
0.000284032
2.34347e-05
0.00028516
2.32507e-05
0.00028617
2.30141e-05
0.000287063
2.27298e-05
0.000287842
2.2402e-05
0.00028851
2.20341e-05
0.000289071
2.16293e-05
0.00028953
2.11898e-05
0.000289891
2.07175e-05
0.00029016
2.02136e-05
0.000290343
1.9679e-05
0.000290443
1.91137e-05
0.000290468
1.85172e-05
0.000290422
1.78881e-05
0.000290311
1.72244e-05
0.00029014
1.65221e-05
0.000289912
1.57794e-05
0.00028963
1.49783e-05
0.000289298
1.41679e-05
1.30592e-05
0.00025016
1.18068e-06
0.000250642
3.54868e-06
0.000251432
5.87103e-06
0.000252499
8.09029e-06
0.000253801
1.01646e-05
0.000255294
1.20671e-05
0.000256933
1.37831e-05
0.000258679
1.53076e-05
0.000260495
1.66432e-05
0.000262351
1.77979e-05
0.000264223
1.87833e-05
0.000266089
1.96126e-05
0.000267932
2.02998e-05
0.000269738
2.08585e-05
0.000271495
2.13017e-05
0.000273194
2.16412e-05
0.000274828
2.18879e-05
0.000276388
2.20511e-05
0.000277871
2.21393e-05
0.000279272
2.21598e-05
0.000280588
2.21191e-05
0.000281816
2.20225e-05
0.000282955
2.18749e-05
0.000284004
2.16804e-05
0.000284964
2.14424e-05
0.000285834
2.11639e-05
0.000286616
2.08472e-05
0.000287312
2.04943e-05
0.000287923
2.01066e-05
0.000288451
1.9685e-05
0.0002889
1.92301e-05
0.000289272
1.87419e-05
0.000289569
1.82197e-05
0.000289795
1.76622e-05
0.000289952
1.70678e-05
0.000290041
1.6433e-05
0.000290064
1.57567e-05
0.000290019
1.50227e-05
0.000289909
1.42784e-05
1.32587e-05
0.000250132
1.04828e-06
0.000250531
3.14974e-06
0.000251187
5.21552e-06
0.000252076
7.20082e-06
0.000253169
9.07182e-06
0.000254431
1.08052e-05
0.000255828
1.23864e-05
0.000257327
1.38087e-05
0.000258899
1.50713e-05
0.000260518
1.61784e-05
0.000262164
1.71377e-05
0.000263817
1.79588e-05
0.000265465
1.86525e-05
0.000267093
1.92297e-05
0.000268694
1.97013e-05
0.000270258
2.00773e-05
0.000271779
2.0367e-05
0.000273251
2.05789e-05
0.00027467
2.07205e-05
0.000276031
2.07984e-05
0.000277332
2.08182e-05
0.000278569
2.0785e-05
0.000279741
2.0703e-05
0.000280846
2.05757e-05
0.000281882
2.04062e-05
0.000282849
2.01971e-05
0.000283746
1.99504e-05
0.000284573
1.96676e-05
0.000285329
1.93499e-05
0.000286016
1.8998e-05
0.000286634
1.86123e-05
0.000287183
1.81927e-05
0.000287664
1.77386e-05
0.000288078
1.72489e-05
0.000288423
1.67222e-05
0.000288701
1.61557e-05
0.000288909
1.55489e-05
0.000289043
1.48885e-05
0.000289104
1.42171e-05
1.33025e-05
0.000250111
9.37071e-07
0.000250446
2.81494e-06
0.000250997
4.66448e-06
0.000251748
6.45019e-06
0.000252675
8.14456e-06
0.000253753
9.72756e-06
0.000254953
1.11856e-05
0.000256251
1.2511e-05
0.000257621
1.37011e-05
0.000259042
1.47573e-05
0.000260496
1.56843e-05
0.000261966
1.64889e-05
0.000263439
1.71791e-05
0.000264905
1.77636e-05
0.000266356
1.8251e-05
0.000267783
1.865e-05
0.000269181
1.89685e-05
0.000270546
1.9214e-05
0.000271873
1.93933e-05
0.00027316
1.95121e-05
0.000274402
1.95758e-05
0.000275598
1.9589e-05
0.000276746
1.95555e-05
0.000277843
1.94787e-05
0.000278888
1.93613e-05
0.000279879
1.92057e-05
0.000280816
1.90137e-05
0.000281697
1.87867e-05
0.000282521
1.85257e-05
0.000283287
1.82314e-05
0.000283996
1.7904e-05
0.000284645
1.75436e-05
0.000285234
1.71496e-05
0.000285762
1.67212e-05
0.000286226
1.62574e-05
0.000286626
1.57562e-05
0.000286957
1.52176e-05
0.000287214
1.46312e-05
0.000287397
1.40342e-05
1.32295e-05
0.000250094
8.42577e-07
0.000250379
2.53062e-06
0.000250847
4.19586e-06
0.000251488
5.80979e-06
0.000252283
7.34986e-06
0.000253211
8.79893e-06
0.000254252
1.01447e-05
0.000255384
1.13792e-05
0.000256586
1.24987e-05
0.000257841
1.35028e-05
0.000259131
1.4394e-05
0.000260443
1.51768e-05
0.000261765
1.5857e-05
0.000263088
1.64412e-05
0.000264402
1.69365e-05
0.000265702
1.73498e-05
0.000266983
1.7688e-05
0.00026824
1.79575e-05
0.000269469
1.81642e-05
0.000270667
1.83135e-05
0.000271833
1.84102e-05
0.000272963
1.84586e-05
0.000274057
1.84622e-05
0.000275111
1.84242e-05
0.000276125
1.83472e-05
0.000277097
1.82335e-05
0.000278026
1.80848e-05
0.000278911
1.79024e-05
0.000279749
1.76875e-05
0.00028054
1.74405e-05
0.000281282
1.71621e-05
0.000281973
1.6852e-05
0.000282612
1.65103e-05
0.000283197
1.61363e-05
0.000283725
1.57295e-05
0.000284193
1.52886e-05
0.000284596
1.48141e-05
0.000284929
1.42986e-05
0.00028519
1.37734e-05
1.30756e-05
0.000250081
7.61446e-07
0.000250325
2.28662e-06
0.000250728
3.79322e-06
0.000251279
5.25808e-06
0.000251967
6.66257e-06
0.000252774
7.99207e-06
0.000253683
9.23552e-06
0.000254677
1.03853e-05
0.000255738
1.1437e-05
0.000256852
1.23891e-05
0.000258003
1.32426e-05
0.00025918
1.40002e-05
0.000260371
1.46659e-05
0.000261568
1.52447e-05
0.000262762
1.57421e-05
0.000263948
1.61637e-05
0.000265121
1.65153e-05
0.000266276
1.68023e-05
0.00026741
1.70299e-05
0.000268521
1.72029e-05
0.000269606
1.73255e-05
0.000270663
1.74017e-05
0.00027169
1.74349e-05
0.000272686
1.7428e-05
0.000273649
1.73837e-05
0.000274579
1.73039e-05
0.000275473
1.71905e-05
0.000276331
1.70448e-05
0.00027715
1.6868e-05
0.00027793
1.66608e-05
0.000278668
1.64237e-05
0.000279363
1.6157e-05
0.000280013
1.58607e-05
0.000280615
1.55348e-05
0.000281165
1.5179e-05
0.000281661
1.4793e-05
0.000282097
1.43775e-05
0.000282468
1.39277e-05
0.000282772
1.34695e-05
1.28708e-05
0.00025007
6.91137e-07
0.000250282
2.07524e-06
0.000250631
3.44407e-06
0.00025111
4.77858e-06
0.00025171
6.06328e-06
0.000252416
7.28569e-06
0.000253216
8.436e-06
0.000254094
9.50703e-06
0.000255037
1.04942e-05
0.00025603
1.13954e-05
0.000257063
1.22103e-05
0.000258123
1.29404e-05
0.0002592
1.35884e-05
0.000260287
1.4158e-05
0.000261375
1.46533e-05
0.00026246
1.50788e-05
0.000263536
1.54393e-05
0.0002646
1.57391e-05
0.000265646
1.59829e-05
0.000266675
1.61748e-05
0.000267681
1.63186e-05
0.000268665
1.64179e-05
0.000269625
1.64757e-05
0.000270558
1.6495e-05
0.000271463
1.6478e-05
0.00027234
1.6427e-05
0.000273187
1.63435e-05
0.000274003
1.62292e-05
0.000274786
1.6085e-05
0.000275534
1.59121e-05
0.000276247
1.5711e-05
0.000276922
1.54822e-05
0.000277557
1.52261e-05
0.000278149
1.49429e-05
0.000278695
1.4633e-05
0.000279191
1.42965e-05
0.000279634
1.39347e-05
0.000280017
1.35447e-05
0.000280339
1.31477e-05
1.26379e-05
0.000250061
6.29686e-07
0.000250246
1.89055e-06
0.000250551
3.13872e-06
0.000250972
4.35844e-06
0.000251498
5.53674e-06
0.000252121
6.66292e-06
0.000252829
7.72834e-06
0.000253609
8.7264e-06
0.000254451
9.65255e-06
0.000255342
1.05042e-05
0.000256272
1.12805e-05
0.00025723
1.19819e-05
0.000258209
1.26101e-05
0.000259199
1.31676e-05
0.000260195
1.36576e-05
0.00026119
1.40835e-05
0.00026218
1.44492e-05
0.000263161
1.47584e-05
0.000264129
1.50148e-05
0.000265082
1.52221e-05
0.000266017
1.53836e-05
0.000266932
1.55025e-05
0.000267826
1.55817e-05
0.000268698
1.56236e-05
0.000269545
1.56307e-05
0.000270367
1.56049e-05
0.000271163
1.55479e-05
0.00027193
1.54613e-05
0.000272669
1.53462e-05
0.000273378
1.52038e-05
0.000274054
1.50348e-05
0.000274696
1.484e-05
0.000275302
1.46201e-05
0.000275869
1.43756e-05
0.000276395
1.41072e-05
0.000276876
1.38156e-05
0.000277308
1.35025e-05
0.000277686
1.31664e-05
0.000278009
1.28247e-05
1.23932e-05
0.000250054
5.75552e-07
0.000250217
1.72789e-06
0.000250486
2.8696e-06
0.000250857
3.98755e-06
0.000251323
5.07081e-06
0.000251875
6.11021e-06
0.000252506
7.09816e-06
0.000253203
8.02864e-06
0.000253959
8.8973e-06
0.000254761
9.70137e-06
0.000255602
1.04395e-05
0.000256473
1.11116e-05
0.000257364
1.17184e-05
0.00025827
1.22618e-05
0.000259184
1.2744e-05
0.0002601
1.31676e-05
0.000261013
1.35357e-05
0.00026192
1.38513e-05
0.000262818
1.41175e-05
0.000263702
1.43374e-05
0.000264572
1.4514e-05
0.000265424
1.46499e-05
0.000266258
1.47479e-05
0.000267072
1.48101e-05
0.000267864
1.48388e-05
0.000268633
1.48358e-05
0.000269378
1.4803e-05
0.000270097
1.47416e-05
0.00027079
1.46531e-05
0.000271456
1.45386e-05
0.000272091
1.43991e-05
0.000272696
1.42356e-05
0.000273267
1.40489e-05
0.000273802
1.38399e-05
0.0002743
1.36095e-05
0.000274757
1.3359e-05
0.000275169
1.309e-05
0.000275533
1.28025e-05
0.000275847
1.25105e-05
1.21474e-05
0.000250048
5.27511e-07
0.000250192
1.58356e-06
0.000250431
2.63067e-06
0.000250761
3.65781e-06
0.000251176
4.65573e-06
0.00025167
5.61657e-06
0.000252234
6.53366e-06
0.000252861
7.40157e-06
0.000253542
8.21623e-06
0.000254269
8.97482e-06
0.000255033
9.67572e-06
0.000255826
1.03184e-05
0.000256641
1.0903e-05
0.000257472
1.14308e-05
0.000258313
1.19032e-05
0.000259158
1.23224e-05
0.000260004
1.26905e-05
0.000260845
1.30101e-05
0.000261678
1.32838e-05
0.000262502
1.3514e-05
0.000263312
1.37034e-05
0.000264108
1.38543e-05
0.000264887
1.3969e-05
0.000265648
1.40495e-05
0.000266388
1.4098e-05
0.000267108
1.41162e-05
0.000267805
1.41056e-05
0.000268479
1.40678e-05
0.000269128
1.40041e-05
0.000269751
1.39158e-05
0.000270346
1.38039e-05
0.000270912
1.36695e-05
0.000271447
1.35138e-05
0.00027195
1.33377e-05
0.000272416
1.31426e-05
0.000272846
1.29297e-05
0.000273235
1.27011e-05
0.00027358
1.24574e-05
0.00027388
1.22102e-05
1.19066e-05
0.000250043
4.84577e-07
0.000250172
1.45459e-06
0.000250386
2.41705e-06
0.000250681
3.36265e-06
0.000251053
4.28355e-06
0.000251496
5.17297e-06
0.000252005
6.02508e-06
0.000252572
6.83504e-06
0.000253189
7.59903e-06
0.000253849
8.31433e-06
0.000254546
8.97917e-06
0.000255271
9.59268e-06
0.00025602
1.01547e-05
0.000256785
1.06659e-05
0.000257561
1.11272e-05
0.000258343
1.15402e-05
0.000259127
1.19065e-05
0.000259909
1.22282e-05
0.000260685
1.25073e-05
0.000261454
1.27459e-05
0.000262211
1.29461e-05
0.000262955
1.31101e-05
0.000263684
1.32398e-05
0.000264396
1.33372e-05
0.000265091
1.34039e-05
0.000265765
1.34417e-05
0.000266419
1.3452e-05
0.00026705
1.34364e-05
0.000267658
1.33962e-05
0.000268241
1.33326e-05
0.000268798
1.32467e-05
0.000269328
1.31399e-05
0.000269828
1.30133e-05
0.000270298
1.28682e-05
0.000270735
1.27059e-05
0.000271136
1.2528e-05
0.000271501
1.23365e-05
0.000271826
1.21325e-05
0.000272111
1.19256e-05
1.16742e-05
0.000250039
4.45942e-07
0.000250155
1.33855e-06
0.000250347
2.22476e-06
0.000250613
3.0967e-06
0.000250949
3.9477e-06
0.00025135
4.77192e-06
0.000251811
5.56429e-06
0.000252325
6.32046e-06
0.000252887
7.03696e-06
0.00025349
7.71118e-06
0.000254128
8.3413e-06
0.000254795
8.92626e-06
0.000255484
9.46564e-06
0.00025619
9.95963e-06
0.000256908
1.04089e-05
0.000257634
1.08143e-05
0.000258364
1.11774e-05
0.000259092
1.14995e-05
0.000259817
1.17823e-05
0.000260535
1.20276e-05
0.000261244
1.22371e-05
0.000261942
1.24126e-05
0.000262626
1.25559e-05
0.000263295
1.26685e-05
0.000263946
1.27521e-05
0.00026458
1.28082e-05
0.000265194
1.28383e-05
0.000265786
1.28437e-05
0.000266357
1.28257e-05
0.000266904
1.27856e-05
0.000267426
1.27246e-05
0.000267922
1.26439e-05
0.00026839
1.25449e-05
0.00026883
1.24289e-05
0.000269238
1.22974e-05
0.000269614
1.21519e-05
0.000269956
1.19947e-05
0.000270262
1.1827e-05
0.000270531
1.16566e-05
1.14513e-05
0.000250035
4.10937e-07
0.00025014
1.23343e-06
0.000250314
2.0505e-06
0.000250556
2.85547e-06
0.000250861
3.64269e-06
0.000251225
4.40714e-06
0.000251645
5.14437e-06
0.000252115
5.85055e-06
0.00025263
6.52252e-06
0.000253183
7.15782e-06
0.00025377
7.75465e-06
0.000254384
8.31182e-06
0.000255021
8.82874e-06
0.000255675
9.30529e-06
0.000256342
9.74177e-06
0.000257018
1.01388e-05
0.000257698
1.04974e-05
0.000258379
1.08187e-05
0.000259057
1.11039e-05
0.00025973
1.13544e-05
0.000260396
1.15718e-05
0.000261051
1.17575e-05
0.000261694
1.19129e-05
0.000262323
1.20395e-05
0.000262936
1.21388e-05
0.000263532
1.22121e-05
0.00026411
1.22607e-05
0.000264667
1.2286e-05
0.000265204
1.22891e-05
0.000265718
1.22714e-05
0.000266209
1.2234e-05
0.000266674
1.21782e-05
0.000267114
1.21054e-05
0.000267526
1.20169e-05
0.000267909
1.19143e-05
0.000268261
1.17992e-05
0.000268582
1.16737e-05
0.00026887
1.15392e-05
0.000269125
1.14022e-05
1.1238e-05
0.000250032
3.79004e-07
0.000250128
1.13754e-06
0.000250287
1.89148e-06
0.000250507
2.63521e-06
0.000250786
3.3639e-06
0.00025112
4.07327e-06
0.000251505
4.75944e-06
0.000251936
5.41904e-06
0.00025241
6.04922e-06
0.00025292
6.64768e-06
0.000253462
7.21267e-06
0.00025403
7.74298e-06
0.000254621
8.23784e-06
0.00025523
8.69694e-06
0.000255851
9.12032e-06
0.000256482
9.50835e-06
0.000257117
9.86164e-06
0.000257755
1.0181e-05
0.000258391
1.04675e-05
0.000259024
1.07222e-05
0.000259649
1.09462e-05
0.000260266
1.11408e-05
0.000260872
1.13072e-05
0.000261465
1.14467e-05
0.000262043
1.15605e-05
0.000262605
1.16499e-05
0.00026315
1.1716e-05
0.000263676
1.176e-05
0.000264182
1.17833e-05
0.000264666
1.17868e-05
0.000265128
1.17719e-05
0.000265567
1.17398e-05
0.00026598
1.16918e-05
0.000266368
1.16294e-05
0.000266728
1.1554e-05
0.00026706
1.14673e-05
0.000267363
1.13711e-05
0.000267635
1.12673e-05
0.000267876
1.11608e-05
1.10337e-05
0.000250029
3.49662e-07
0.000250117
1.04944e-06
0.000250264
1.74535e-06
0.000250466
2.43268e-06
0.000250723
3.10736e-06
0.00025103
3.76571e-06
0.000251385
4.40442e-06
0.000251784
5.02049e-06
0.000252222
5.61138e-06
0.000252694
6.17497e-06
0.000253197
6.7096e-06
0.000253726
7.21402e-06
0.000254277
7.68739e-06
0.000254845
8.12923e-06
0.000255425
8.53939e-06
0.000256016
8.918e-06
0.000256612
9.26542e-06
0.000257211
9.58221e-06
0.000257809
9.86909e-06
0.000258405
1.01269e-05
0.000258994
1.03566e-05
0.000259576
1.05591e-05
0.000260148
1.07354e-05
0.000260708
1.08867e-05
0.000261254
1.10141e-05
0.000261785
1.11185e-05
0.0002623
1.12011e-05
0.000262797
1.1263e-05
0.000263276
1.13052e-05
0.000263733
1.1329e-05
0.00026417
1.13355e-05
0.000264584
1.13258e-05
0.000264974
1.13014e-05
0.00026534
1.12635e-05
0.00026568
1.12137e-05
0.000265994
1.11536e-05
0.00026628
1.10849e-05
0.000266538
1.10093e-05
0.000266768
1.0931e-05
1.08375e-05
0.000250027
3.22498e-07
0.000250109
9.67875e-07
0.000250244
1.61004e-06
0.000250432
2.24508e-06
0.000250669
2.86959e-06
0.000250955
3.48046e-06
0.000251284
4.07482e-06
0.000251655
4.65009e-06
0.000252062
5.20398e-06
0.000252502
5.73456e-06
0.000252972
6.24026e-06
0.000253466
6.71984e-06
0.000253981
7.17239e-06
0.000254513
7.59733e-06
0.000255058
7.99434e-06
0.000255613
8.36335e-06
0.000256173
8.70453e-06
0.000256738
9.01818e-06
0.000257302
9.30482e-06
0.000257864
9.56503e-06
0.000258421
9.79952e-06
0.000258971
1.00091e-05
0.000259512
1.01945e-05
0.000260042
1.03568e-05
0.000260559
1.04967e-05
0.000261062
1.06153e-05
0.00026155
1.07134e-05
0.000262021
1.07921e-05
0.000262473
1.08525e-05
0.000262907
1.08955e-05
0.00026332
1.09222e-05
0.000263712
1.09339e-05
0.000264082
1.09317e-05
0.000264428
1.09171e-05
0.000264751
1.08913e-05
0.000265048
1.0856e-05
0.00026532
1.08129e-05
0.000265566
1.07636e-05
0.000265786
1.07113e-05
1.06485e-05
0.000250025
2.97143e-07
0.000250101
8.91748e-07
0.000250228
1.48374e-06
0.000250403
2.06993e-06
0.000250625
2.64752e-06
0.000250892
3.21392e-06
0.0002512
3.76668e-06
0.000251546
4.30356e-06
0.000251928
4.82253e-06
0.00025234
5.32183e-06
0.000252781
5.79999e-06
0.000253245
6.25579e-06
0.000253729
6.68828e-06
0.000254229
7.0968e-06
0.000254743
7.48089e-06
0.000255266
7.84033e-06
0.000255795
8.17508e-06
0.000256328
8.48529e-06
0.000256862
8.77123e-06
0.000257393
9.0333e-06
0.000257921
9.27201e-06
0.000258442
9.48794e-06
0.000258955
9.68175e-06
0.000259458
9.85414e-06
0.000259948
1.00059e-05
0.000260426
1.01377e-05
0.000260889
1.02506e-05
0.000261336
1.03453e-05
0.000261765
1.04228e-05
0.000262177
1.0484e-05
0.000262569
1.053e-05
0.000262941
1.05619e-05
0.000263292
1.05808e-05
0.000263621
1.0588e-05
0.000263927
1.05848e-05
0.000264211
1.05728e-05
0.00026447
1.05535e-05
0.000264705
1.05285e-05
0.000264916
1.05003e-05
1.04658e-05
0.000250024
2.73262e-07
0.000250096
8.20049e-07
0.000250215
1.36479e-06
0.000250379
1.90498e-06
0.000250589
2.43839e-06
0.00025084
2.96287e-06
0.00025113
3.47639e-06
0.000251456
3.97701e-06
0.000251816
4.46294e-06
0.000252205
4.93258e-06
0.000252621
5.38454e-06
0.000253059
5.81763e-06
0.000253516
6.2309e-06
0.00025399
6.62357e-06
0.000254475
6.99511e-06
0.000254971
7.34515e-06
0.000255472
7.6735e-06
0.000255977
7.98012e-06
0.000256483
8.2651e-06
0.000256988
8.52867e-06
0.000257489
8.77115e-06
0.000257984
8.99293e-06
0.000258471
9.19451e-06
0.000258949
9.37644e-06
0.000259415
9.53931e-06
0.000259869
9.68379e-06
0.000260309
9.81058e-06
0.000260734
9.92046e-06
0.000261143
1.00142e-05
0.000261534
1.00928e-05
0.000261907
1.0157e-05
0.000262261
1.0208e-05
0.000262595
1.02468e-05
0.000262908
1.02746e-05
0.0002632
1.02927e-05
0.00026347
1.03025e-05
0.000263719
1.03054e-05
0.000263944
1.0303e-05
0.000264147
1.02972e-05
1.02886e-05
0.000250023
2.50542e-07
0.000250091
7.51835e-07
0.000250204
1.25164e-06
0.000250361
1.74812e-06
0.00025056
2.23958e-06
0.000250798
2.72431e-06
0.000251074
3.20062e-06
0.000251384
3.66686e-06
0.000251726
4.12145e-06
0.000252095
4.56293e-06
0.00025249
4.98999e-06
0.000252906
5.40146e-06
0.000253341
5.79637e-06
0.00025379
6.17389e-06
0.000254252
6.53338e-06
0.000254723
6.87434e-06
0.0002552
7.19645e-06
0.000255681
7.49952e-06
0.000256162
7.78347e-06
0.000256642
8.04835e-06
0.000257119
8.29431e-06
0.000257591
8.5216e-06
0.000258055
8.73053e-06
0.00025851
8.9215e-06
0.000258954
9.09496e-06
0.000259386
9.25145e-06
0.000259805
9.39153e-06
0.00026021
9.51587e-06
0.000260599
9.62517e-06
0.000260972
9.7202e-06
0.000261327
9.8018e-06
0.000261664
9.87091e-06
0.000261982
9.92852e-06
0.000262281
9.97574e-06
0.00026256
1.00137e-05
0.000262819
1.00439e-05
0.000263057
1.00674e-05
0.000263274
1.00861e-05
0.00026347
1.0101e-05
1.01164e-05
0.000250022