/*--------------------------------*- C++ -*----------------------------------*\
| =========                 |                                                 |
| \\      /  F ield         | OpenFOAM: The Open Source CFD Toolbox           |
|  \\    /   O peration     | Version:  v1906                                 |
|   \\  /    A nd           | Web:      www.OpenFOAM.com                      |
|    \\/     M anipulation  |                                                 |
\*---------------------------------------------------------------------------*/
FoamFile
{
    version     2.0;
    format      ascii;
    class       volVectorField;
    location    "0.55";
    object      U;
}
// * * * * * * * * * * * * * * * * * * * * * * * * * * * * * * * * * * * * * //

dimensions      [0 1 -1 0 0 0 0];


internalField   nonuniform List<vector> 
1600
(
(8.101 0.891242 0)
(7.08777 1.1084 0)
(5.651 0.820661 0)
(4.37142 0.527766 0)
(3.51651 0.323011 0)
(2.9603 0.19687 0)
(2.57669 0.12444 0)
(2.2994 0.0837197 0)
(2.09094 0.0603096 0)
(1.92785 0.0461404 0)
(1.79573 0.0369649 0)
(1.6858 0.0305958 0)
(1.59251 0.0259059 0)
(1.51211 0.0222963 0)
(1.44199 0.0194283 0)
(1.38022 0.0170961 0)
(1.32536 0.0151659 0)
(1.27629 0.0135455 0)
(1.23214 0.0121689 0)
(1.19221 0.0109869 0)
(1.15594 0.0099625 0)
(1.12285 0.00906686 0)
(1.09258 0.00827745 0)
(1.06479 0.00757637 0)
(1.03924 0.00694925 0)
(1.01569 0.00638444 0)
(0.993947 0.00587247 0)
(0.973857 0.0054056 0)
(0.955276 0.00497759 0)
(0.938085 0.00458352 0)
(0.922175 0.00421984 0)
(0.907453 0.00388472 0)
(0.893828 0.00357892 0)
(0.881209 0.00330818 0)
(0.869485 0.00308914 0)
(0.858505 0.00296272 0)
(0.848071 0.00301515 0)
(0.837713 0.00343135 0)
(0.825127 0.00468268 0)
(0.80861 0.00706314 0)
(10.0486 1.53901 0)
(10.4597 2.2675 0)
(10.0952 2.02589 0)
(9.26487 1.58294 0)
(8.37869 1.17247 0)
(7.58214 0.852452 0)
(6.89809 0.624825 0)
(6.32306 0.469688 0)
(5.8442 0.364427 0)
(5.44428 0.291623 0)
(5.10696 0.239685 0)
(4.81906 0.201331 0)
(4.57049 0.172068 0)
(4.35362 0.149105 0)
(4.16263 0.130661 0)
(3.99308 0.11556 0)
(3.84149 0.102999 0)
(3.70512 0.0924086 0)
(3.5818 0.0833762 0)
(3.46974 0.0755931 0)
(3.36751 0.0688246 0)
(3.2739 0.0628889 0)
(3.18794 0.0576432 0)
(3.10877 0.0529737 0)
(3.03571 0.0487886 0)
(2.96815 0.0450136 0)
(2.90558 0.0415876 0)
(2.84756 0.0384605 0)
(2.79373 0.0355916 0)
(2.74374 0.032948 0)
(2.69731 0.0305047 0)
(2.65418 0.0282459 0)
(2.61411 0.0261675 0)
(2.57687 0.0242848 0)
(2.54221 0.0226483 0)
(2.50981 0.0213796 0)
(2.47934 0.0207234 0)
(2.45038 0.0211167 0)
(2.42014 0.0235098 0)
(2.38471 0.0288956 0)
(10.1375 1.01381 0)
(10.7552 1.98137 0)
(11.0903 2.18428 0)
(11.0307 2.05758 0)
(10.7077 1.80772 0)
(10.2497 1.52858 0)
(9.73666 1.26951 0)
(9.21951 1.0505 0)
(8.72799 0.873627 0)
(8.27559 0.733431 0)
(7.86575 0.622703 0)
(7.49696 0.534783 0)
(7.16571 0.464249 0)
(6.86784 0.406951 0)
(6.59929 0.359799 0)
(6.35636 0.320509 0)
(6.13583 0.287388 0)
(5.93492 0.25917 0)
(5.75128 0.234896 0)
(5.58287 0.213829 0)
(5.428 0.195398 0)
(5.2852 0.17915 0)
(5.15322 0.164726 0)
(5.03098 0.151837 0)
(4.91758 0.140247 0)
(4.8122 0.129762 0)
(4.71416 0.120223 0)
(4.62286 0.111497 0)
(4.53778 0.103476 0)
(4.45846 0.0960694 0)
(4.3845 0.0892086 0)
(4.31554 0.082844 0)
(4.25126 0.0769512 0)
(4.19134 0.0715423 0)
(4.13548 0.0666862 0)
(4.08338 0.0625531 0)
(4.03474 0.0594808 0)
(3.98952 0.057989 0)
(3.94584 0.0588241 0)
(3.89555 0.063662 0)
(10.068 0.568829 0)
(10.5037 1.40451 0)
(10.9793 1.83686 0)
(11.2902 1.98416 0)
(11.3911 1.95723 0)
(11.3186 1.83137 0)
(11.1218 1.66064 0)
(10.8447 1.48003 0)
(10.523 1.30824 0)
(10.1824 1.15339 0)
(9.84015 1.01781 0)
(9.50656 0.900926 0)
(9.18756 0.800841 0)
(8.8861 0.715257 0)
(8.60322 0.641923 0)
(8.33889 0.578831 0)
(8.09242 0.524269 0)
(7.86283 0.476812 0)
(7.64897 0.435287 0)
(7.4497 0.398736 0)
(7.26389 0.366373 0)
(7.09049 0.337553 0)
(6.92851 0.311745 0)
(6.77708 0.288507 0)
(6.63539 0.267473 0)
(6.50272 0.248336 0)
(6.37841 0.230835 0)
(6.2619 0.214755 0)
(6.15267 0.199911 0)
(6.05026 0.186151 0)
(5.95425 0.173351 0)
(5.86429 0.161419 0)
(5.78004 0.150294 0)
(5.70123 0.139965 0)
(5.62757 0.130482 0)
(5.55885 0.121996 0)
(5.49489 0.114816 0)
(5.43588 0.109425 0)
(5.3815 0.10612 0)
(5.31818 0.107146 0)
(10.0307 0.348632 0)
(10.2888 0.97779 0)
(10.6757 1.42423 0)
(11.0501 1.68441 0)
(11.3258 1.79902 0)
(11.4834 1.80962 0)
(11.5317 1.75241 0)
(11.488 1.6562 0)
(11.3731 1.54129 0)
(11.2065 1.42073 0)
(11.0052 1.30235 0)
(10.7825 1.19054 0)
(10.5483 1.08738 0)
(10.3101 0.993557 0)
(10.073 0.908951 0)
(9.84041 0.832994 0)
(9.61471 0.764924 0)
(9.39728 0.703918 0)
(9.1889 0.649172 0)
(8.98994 0.599935 0)
(8.80048 0.555529 0)
(8.6204 0.515352 0)
(8.44946 0.478874 0)
(8.28736 0.445632 0)
(8.13376 0.415223 0)
(7.98828 0.387296 0)
(7.85058 0.361546 0)
(7.72029 0.337708 0)
(7.59708 0.315553 0)
(7.48065 0.294884 0)
(7.3707 0.275536 0)
(7.26697 0.257378 0)
(7.16924 0.240312 0)
(7.0773 0.224287 0)
(6.99101 0.209307 0)
(6.91026 0.19546 0)
(6.83507 0.182936 0)
(6.76557 0.172122 0)
(6.7034 0.162856 0)
(6.62912 0.157387 0)
(10.0157 0.238715 0)
(10.1659 0.704015 0)
(10.434 1.087 0)
(10.7488 1.36101 0)
(11.0423 1.53496 0)
(11.2811 1.62672 0)
(11.4532 1.65492 0)
(11.5569 1.63718 0)
(11.5971 1.58845 0)
(11.5823 1.52036 0)
(11.5221 1.44146 0)
(11.4263 1.35776 0)
(11.3033 1.27335 0)
(11.1606 1.19088 0)
(11.0042 1.11194 0)
(10.8389 1.03743 0)
(10.6686 0.967735 0)
(10.4964 0.902936 0)
(10.3244 0.842912 0)
(10.1543 0.787419 0)
(9.98743 0.736154 0)
(9.82463 0.688783 0)
(9.66654 0.644969 0)
(9.51358 0.604382 0)
(9.36602 0.566709 0)
(9.22403 0.531658 0)
(9.08769 0.498959 0)
(8.957 0.468368 0)
(8.83195 0.43966 0)
(8.71249 0.412637 0)
(8.59857 0.387122 0)
(8.49011 0.362966 0)
(8.38707 0.340047 0)
(8.28942 0.318277 0)
(8.19716 0.297608 0)
(8.11034 0.27805 0)
(8.02919 0.259645 0)
(7.9536 0.242654 0)
(7.8873 0.226607 0)
(7.80533 0.212773 0)
(10.0094 0.176239 0)
(10.1013 0.528088 0)
(10.2804 0.840491 0)
(10.5159 1.08998 0)
(10.7653 1.27456 0)
(11.0007 1.40059 0)
(11.2061 1.47647 0)
(11.3728 1.51147 0)
(11.4967 1.51473 0)
(11.5782 1.49437 0)
(11.6201 1.45713 0)
(11.6266 1.40843 0)
(11.6026 1.35245 0)
(11.5529 1.29234 0)
(11.4822 1.23044 0)
(11.3946 1.16842 0)
(11.2939 1.10742 0)
(11.1833 1.04823 0)
(11.0655 0.991331 0)
(10.9427 0.936989 0)
(10.8167 0.885329 0)
(10.6892 0.836368 0)
(10.5613 0.790049 0)
(10.434 0.746266 0)
(10.3082 0.704883 0)
(10.1844 0.665745 0)
(10.0633 0.628689 0)
(9.94508 0.593549 0)
(9.83018 0.560161 0)
(9.71883 0.528367 0)
(9.61124 0.498018 0)
(9.50758 0.468974 0)
(9.40801 0.441111 0)
(9.3127 0.414321 0)
(9.22184 0.388513 0)
(9.13561 0.363628 0)
(9.05453 0.339578 0)
(8.97805 0.31647 0)
(8.91189 0.293796 0)
(8.82666 0.270793 0)
(10.0063 0.137041 0)
(10.0666 0.412022 0)
(10.1886 0.666116 0)
(10.3594 0.882343 0)
(10.5546 1.05599 0)
(10.7549 1.18874 0)
(10.9476 1.28431 0)
(11.1234 1.34741 0)
(11.276 1.38318 0)
(11.4021 1.39668 0)
(11.5002 1.39252 0)
(11.571 1.37467 0)
(11.6158 1.3465 0)
(11.6367 1.31081 0)
(11.6363 1.26984 0)
(11.617 1.22538 0)
(11.5815 1.17884 0)
(11.5323 1.13129 0)
(11.4715 1.08355 0)
(11.4013 1.0362 0)
(11.3236 0.989684 0)
(11.2398 0.944292 0)
(11.1515 0.900215 0)
(11.0598 0.857564 0)
(10.9659 0.816388 0)
(10.8706 0.776689 0)
(10.7747 0.738437 0)
(10.6789 0.701573 0)
(10.5837 0.666022 0)
(10.4897 0.631695 0)
(10.3973 0.598495 0)
(10.3068 0.566318 0)
(10.2187 0.535057 0)
(10.1331 0.504604 0)
(10.0506 0.474844 0)
(9.97142 0.445665 0)
(9.89628 0.416895 0)
(9.82422 0.388452 0)
(9.76251 0.360102 0)
(9.67912 0.328293 0)
(10.0045 0.110542 0)
(10.0467 0.332236 0)
(10.133 0.541569 0)
(10.2581 0.726727 0)
(10.4073 0.882911 0)
(10.5686 1.00995 0)
(10.7329 1.10952 0)
(10.8929 1.18411 0)
(11.043 1.23668 0)
(11.1791 1.27035 0)
(11.2986 1.28809 0)
(11.4 1.29263 0)
(11.4827 1.2864 0)
(11.547 1.27152 0)
(11.5937 1.24982 0)
(11.6237 1.22285 0)
(11.6384 1.19189 0)
(11.6391 1.15802 0)
(11.6274 1.1221 0)
(11.6047 1.08484 0)
(11.5723 1.0468 0)
(11.5317 1.00841 0)
(11.4839 0.97001 0)
(11.4303 0.931857 0)
(11.3717 0.894133 0)
(11.3091 0.856965 0)
(11.2434 0.82043 0)
(11.1753 0.784572 0)
(11.1056 0.749399 0)
(11.0347 0.714894 0)
(10.9633 0.681018 0)
(10.8919 0.647711 0)
(10.8209 0.614898 0)
(10.7509 0.582481 0)
(10.6821 0.550337 0)
(10.6151 0.518325 0)
(10.5508 0.486233 0)
(10.4878 0.453773 0)
(10.4342 0.421222 0)
(10.3576 0.382029 0)
(10.0034 0.0915174 0)
(10.0344 0.274806 0)
(10.0979 0.450088 0)
(10.1916 0.609098 0)
(10.3065 0.747643 0)
(10.4346 0.864784 0)
(10.5696 0.961155 0)
(10.7066 1.03815 0)
(10.841 1.0976 0)
(10.9695 1.14151 0)
(11.0893 1.17187 0)
(11.1986 1.19056 0)
(11.2961 1.19931 0)
(11.3812 1.19965 0)
(11.4534 1.19297 0)
(11.5129 1.18046 0)
(11.5601 1.16319 0)
(11.5953 1.14204 0)
(11.6194 1.1178 0)
(11.6331 1.09112 0)
(11.6373 1.06256 0)
(11.6327 1.03257 0)
(11.6203 1.00153 0)
(11.6009 0.969751 0)
(11.5753 0.937481 0)
(11.5443 0.904911 0)
(11.5086 0.872188 0)
(11.469 0.839415 0)
(11.4259 0.806663 0)
(11.3801 0.773967 0)
(11.3321 0.741336 0)
(11.2825 0.708748 0)
(11.2316 0.676155 0)
(11.1801 0.643476 0)
(11.1285 0.610594 0)
(11.0769 0.577348 0)
(11.0265 0.543532 0)
(10.9758 0.508658 0)
(10.9328 0.473607 0)
(10.8669 0.429187 0)
(10.0026 0.0772466 0)
(10.0262 0.2318 0)
(10.0747 0.380837 0)
(10.1467 0.518462 0)
(10.2366 0.641192 0)
(10.3388 0.747779 0)
(10.4491 0.838265 0)
(10.5637 0.913397 0)
(10.6795 0.974345 0)
(10.7937 1.02248 0)
(10.9041 1.05922 0)
(11.0091 1.08594 0)
(11.1074 1.10389 0)
(11.1979 1.11423 0)
(11.28 1.11799 0)
(11.3533 1.1161 0)
(11.4176 1.10936 0)
(11.4729 1.0985 0)
(11.5193 1.08414 0)
(11.5572 1.06684 0)
(11.5868 1.04706 0)
(11.6086 1.02523 0)
(11.6231 1.00169 0)
(11.6308 0.976749 0)
(11.6322 0.950646 0)
(11.6278 0.923592 0)
(11.6181 0.895753 0)
(11.6038 0.867258 0)
(11.5853 0.838205 0)
(11.5631 0.808657 0)
(11.5376 0.778649 0)
(11.5094 0.748182 0)
(11.4788 0.717227 0)
(11.4464 0.685717 0)
(11.4126 0.653545 0)
(11.3776 0.62054 0)
(11.3424 0.586529 0)
(11.3054 0.550868 0)
(11.2742 0.514977 0)
(11.2214 0.467806 0)
(10.0021 0.0661997 0)
(10.0206 0.198576 0)
(10.0585 0.326991 0)
(10.1153 0.44714 0)
(10.1869 0.556191 0)
(10.2696 0.652831 0)
(10.3602 0.736749 0)
(10.4559 0.808267 0)
(10.5543 0.868112 0)
(10.6533 0.91724 0)
(10.7513 0.956695 0)
(10.8469 0.987515 0)
(10.9389 1.01068 0)
(11.0264 1.0271 0)
(11.1088 1.03757 0)
(11.1855 1.04283 0)
(11.2562 1.04352 0)
(11.3205 1.04021 0)
(11.3783 1.03341 0)
(11.4297 1.02354 0)
(11.4746 1.01102 0)
(11.5132 0.99616 0)
(11.5456 0.979276 0)
(11.5722 0.960621 0)
(11.5931 0.940415 0)
(11.6087 0.918846 0)
(11.6192 0.896069 0)
(11.6251 0.87221 0)
(11.6267 0.847365 0)
(11.6242 0.821604 0)
(11.6181 0.794967 0)
(11.6088 0.767464 0)
(11.5964 0.739074 0)
(11.5815 0.709738 0)
(11.5643 0.679359 0)
(11.545 0.647768 0)
(11.5244 0.614829 0)
(11.5011 0.579813 0)
(11.4814 0.544513 0)
(11.4425 0.496982 0)
(10.0017 0.0574394 0)
(10.0165 0.172266 0)
(10.0468 0.28416 0)
(10.0925 0.389907 0)
(10.1507 0.487225 0)
(10.2185 0.574862 0)
(10.2937 0.652321 0)
(10.374 0.719638 0)
(10.4577 0.777221 0)
(10.5431 0.825717 0)
(10.6288 0.865892 0)
(10.7138 0.898547 0)
(10.7971 0.924464 0)
(10.8779 0.944377 0)
(10.9558 0.958953 0)
(11.0301 0.968793 0)
(11.1004 0.974429 0)
(11.1665 0.97633 0)
(11.2282 0.974909 0)
(11.2852 0.970529 0)
(11.3375 0.963508 0)
(11.3851 0.954125 0)
(11.4278 0.942623 0)
(11.4658 0.929213 0)
(11.4993 0.914078 0)
(11.5282 0.897374 0)
(11.5527 0.879232 0)
(11.573 0.859758 0)
(11.5894 0.839036 0)
(11.6019 0.817123 0)
(11.6109 0.794056 0)
(11.6165 0.769841 0)
(11.619 0.744458 0)
(11.6185 0.717852 0)
(11.6153 0.689935 0)
(11.6095 0.660546 0)
(11.6018 0.62959 0)
(11.5906 0.596323 0)
(11.5812 0.562712 0)
(11.5555 0.516826 0)
(10.0014 0.0503542 0)
(10.0135 0.151003 0)
(10.0382 0.249428 0)
(10.0756 0.34318 0)
(10.1235 0.430423 0)
(10.1799 0.510025 0)
(10.243 0.581411 0)
(10.3111 0.644435 0)
(10.3827 0.699278 0)
(10.4565 0.74635 0)
(10.5313 0.786196 0)
(10.6063 0.819426 0)
(10.6807 0.846664 0)
(10.7538 0.86851 0)
(10.8252 0.885527 0)
(10.8944 0.898225 0)
(10.9611 0.907062 0)
(11.0251 0.912442 0)
(11.086 0.91472 0)
(11.1437 0.914207 0)
(11.1981 0.911172 0)
(11.249 0.905851 0)
(11.2963 0.898446 0)
(11.3401 0.889132 0)
(11.3803 0.87806 0)
(11.4169 0.865357 0)
(11.4499 0.851127 0)
(11.4794 0.835457 0)
(11.5055 0.818411 0)
(11.5283 0.800033 0)
(11.5478 0.780349 0)
(11.5642 0.759359 0)
(11.5776 0.737041 0)
(11.588 0.713342 0)
(11.5956 0.688184 0)
(11.6005 0.661422 0)
(11.6029 0.632996 0)
(11.6018 0.602214 0)
(11.6008 0.57103 0)
(11.5865 0.52825 0)
(10.0011 0.0445275 0)
(10.0112 0.133526 0)
(10.0317 0.220803 0)
(10.0627 0.304459 0)
(10.1028 0.383013 0)
(10.1503 0.45547 0)
(10.2038 0.521246 0)
(10.262 0.580089 0)
(10.3237 0.632026 0)
(10.3878 0.677289 0)
(10.4534 0.716247 0)
(10.5195 0.749352 0)
(10.5857 0.777089 0)
(10.6514 0.799949 0)
(10.716 0.8184 0)
(10.7794 0.832882 0)
(10.8412 0.843792 0)
(10.9011 0.851488 0)
(10.959 0.856285 0)
(11.0146 0.858459 0)
(11.0679 0.858249 0)
(11.1187 0.855863 0)
(11.1669 0.851479 0)
(11.2124 0.845247 0)
(11.2553 0.837295 0)
(11.2953 0.827729 0)
(11.3326 0.816637 0)
(11.3671 0.804087 0)
(11.3987 0.790129 0)
(11.4276 0.774796 0)
(11.4537 0.758104 0)
(11.477 0.740049 0)
(11.4976 0.720606 0)
(11.5155 0.699728 0)
(11.5307 0.67735 0)
(11.5431 0.653349 0)
(11.553 0.627692 0)
(11.5594 0.599784 0)
(11.5647 0.571438 0)
(11.5596 0.532656 0)
(10.001 0.039667 0)
(10.0094 0.11895 0)
(10.0266 0.196878 0)
(10.0528 0.271954 0)
(10.0866 0.342974 0)
(10.127 0.409081 0)
(10.1728 0.469714 0)
(10.2231 0.524575 0)
(10.2767 0.573586 0)
(10.3327 0.616854 0)
(10.3904 0.654613 0)
(10.4491 0.687183 0)
(10.5081 0.714934 0)
(10.567 0.738254 0)
(10.6254 0.757532 0)
(10.683 0.773138 0)
(10.7396 0.785419 0)
(10.7949 0.79469 0)
(10.8488 0.801234 0)
(10.9011 0.805302 0)
(10.9517 0.807111 0)
(11.0005 0.806851 0)
(11.0474 0.804684 0)
(11.0923 0.800746 0)
(11.1351 0.795154 0)
(11.1759 0.788001 0)
(11.2145 0.779363 0)
(11.2508 0.769299 0)
(11.2849 0.757852 0)
(11.3167 0.745047 0)
(11.3462 0.730896 0)
(11.3734 0.715393 0)
(11.3982 0.698519 0)
(11.4205 0.680232 0)
(11.4404 0.660483 0)
(11.4577 0.639177 0)
(11.4724 0.616305 0)
(11.4839 0.591389 0)
(11.4936 0.566031 0)
(11.4952 0.531637 0)
(10.0008 0.0355614 0)
(10.008 0.10664 0)
(10.0226 0.176635 0)
(10.0449 0.244352 0)
(10.0738 0.308805 0)
(10.1085 0.36926 0)
(10.1481 0.425199 0)
(10.1918 0.476308 0)
(10.2387 0.522451 0)
(10.288 0.563645 0)
(10.3391 0.600024 0)
(10.3913 0.631805 0)
(10.4441 0.65926 0)
(10.4971 0.682691 0)
(10.5499 0.70241 0)
(10.6022 0.718727 0)
(10.6539 0.731937 0)
(10.7047 0.742317 0)
(10.7544 0.750118 0)
(10.803 0.755568 0)
(10.8503 0.758866 0)
(10.8963 0.760189 0)
(10.9408 0.759686 0)
(10.9838 0.757486 0)
(11.0251 0.753698 0)
(11.0649 0.748411 0)
(11.1029 0.741695 0)
(11.1392 0.733605 0)
(11.1737 0.724181 0)
(11.2062 0.71345 0)
(11.2369 0.701421 0)
(11.2656 0.688095 0)
(11.2922 0.673458 0)
(11.3167 0.657481 0)
(11.339 0.640132 0)
(11.3589 0.621346 0)
(11.3765 0.601133 0)
(11.391 0.57914 0)
(11.4034 0.55673 0)
(11.4096 0.526731 0)
(10.0007 0.0320552 0)
(10.0068 0.0961274 0)
(10.0194 0.159323 0)
(10.0386 0.220675 0)
(10.0635 0.279371 0)
(10.0936 0.334783 0)
(10.1281 0.386447 0)
(10.1663 0.434049 0)
(10.2076 0.477422 0)
(10.2513 0.516526 0)
(10.2967 0.551422 0)
(10.3434 0.582248 0)
(10.3909 0.609198 0)
(10.4387 0.632498 0)
(10.4866 0.652397 0)
(10.5343 0.669147 0)
(10.5815 0.682996 0)
(10.6281 0.694181 0)
(10.6739 0.702924 0)
(10.7189 0.709427 0)
(10.7628 0.713874 0)
(10.8056 0.716425 0)
(10.8473 0.717223 0)
(10.8878 0.716389 0)
(10.927 0.714028 0)
(10.9649 0.710224 0)
(11.0014 0.705048 0)
(11.0365 0.698556 0)
(11.07 0.690788 0)
(11.102 0.681772 0)
(11.1324 0.671526 0)
(11.1611 0.660056 0)
(11.188 0.647358 0)
(11.213 0.633418 0)
(11.2361 0.618223 0)
(11.257 0.601738 0)
(11.2758 0.583991 0)
(11.2918 0.564739 0)
(11.3056 0.545118 0)
(11.3145 0.519271 0)
(10.0006 0.0290312 0)
(10.0059 0.087061 0)
(10.0168 0.144373 0)
(10.0334 0.200177 0)
(10.0552 0.253798 0)
(10.0814 0.304701 0)
(10.1117 0.35247 0)
(10.1454 0.396809 0)
(10.1819 0.437537 0)
(10.2208 0.474576 0)
(10.2615 0.507937 0)
(10.3034 0.5377 0)
(10.3463 0.563996 0)
(10.3896 0.586992 0)
(10.4332 0.60688 0)
(10.4767 0.623862 0)
(10.52 0.638142 0)
(10.5628 0.649921 0)
(10.6051 0.65939 0)
(10.6466 0.666727 0)
(10.6873 0.672098 0)
(10.7272 0.675649 0)
(10.766 0.677512 0)
(10.8039 0.677802 0)
(10.8407 0.676618 0)
(10.8764 0.674045 0)
(10.9109 0.670152 0)
(10.9441 0.664997 0)
(10.9761 0.658624 0)
(11.0068 0.651066 0)
(11.036 0.642348 0)
(11.0638 0.632485 0)
(11.09 0.621484 0)
(11.1145 0.609349 0)
(11.1373 0.596082 0)
(11.1582 0.581678 0)
(11.177 0.56618 0)
(11.1935 0.549439 0)
(11.2078 0.532388 0)
(11.218 0.510312 0)
(10.0005 0.0263997 0)
(10.0052 0.0791713 0)
(10.0147 0.13135 0)
(10.0292 0.182282 0)
(10.0483 0.231406 0)
(10.0714 0.278262 0)
(10.0981 0.322483 0)
(10.128 0.363795 0)
(10.1606 0.402013 0)
(10.1954 0.43704 0)
(10.2319 0.468852 0)
(10.2697 0.497484 0)
(10.3086 0.523022 0)
(10.348 0.545584 0)
(10.3878 0.565315 0)
(10.4277 0.582374 0)
(10.4675 0.596927 0)
(10.5069 0.609141 0)
(10.5459 0.619178 0)
(10.5844 0.627193 0)
(10.6222 0.63333 0)
(10.6592 0.637724 0)
(10.6954 0.640494 0)
(10.7307 0.641748 0)
(10.7651 0.64158 0)
(10.7985 0.640072 0)
(10.8309 0.637294 0)
(10.8621 0.633304 0)
(10.8923 0.62815 0)
(10.9212 0.621873 0)
(10.9489 0.614503 0)
(10.9753 0.606064 0)
(11.0003 0.596577 0)
(11.0238 0.58606 0)
(11.0457 0.574531 0)
(11.0659 0.562009 0)
(11.0842 0.548551 0)
(11.1004 0.53408 0)
(11.1145 0.519359 0)
(11.1252 0.500628 0)
(10.0005 0.0240909 0)
(10.0046 0.0722491 0)
(10.013 0.119913 0)
(10.0258 0.16654 0)
(10.0426 0.211656 0)
(10.0631 0.254868 0)
(10.0868 0.295854 0)
(10.1135 0.334361 0)
(10.1427 0.370211 0)
(10.1739 0.403296 0)
(10.2069 0.433568 0)
(10.2412 0.461034 0)
(10.2765 0.485742 0)
(10.3125 0.507774 0)
(10.349 0.527235 0)
(10.3856 0.54425 0)
(10.4223 0.55895 0)
(10.4587 0.571471 0)
(10.4949 0.581951 0)
(10.5305 0.590521 0)
(10.5656 0.597308 0)
(10.6001 0.602429 0)
(10.6338 0.605994 0)
(10.6668 0.6081 0)
(10.6989 0.608837 0)
(10.7302 0.608283 0)
(10.7604 0.606507 0)
(10.7898 0.603568 0)
(10.818 0.599518 0)
(10.8452 0.5944 0)
(10.8712 0.588253 0)
(10.896 0.58111 0)
(10.9196 0.573002 0)
(10.9417 0.563958 0)
(10.9624 0.554013 0)
(10.9815 0.543203 0)
(10.999 0.531597 0)
(11.0145 0.519169 0)
(11.0281 0.506545 0)
(11.0387 0.490739 0)
(10.0004 0.0220498 0)
(10.0041 0.0661292 0)
(10.0115 0.109794 0)
(10.0229 0.152589 0)
(10.0379 0.194116 0)
(10.0561 0.234035 0)
(10.0774 0.272064 0)
(10.1013 0.307974 0)
(10.1275 0.341598 0)
(10.1558 0.372821 0)
(10.1857 0.401584 0)
(10.2169 0.427871 0)
(10.2491 0.451704 0)
(10.2821 0.473135 0)
(10.3156 0.492241 0)
(10.3494 0.509114 0)
(10.3832 0.523858 0)
(10.417 0.536583 0)
(10.4505 0.547402 0)
(10.4837 0.556428 0)
(10.5164 0.563767 0)
(10.5486 0.569524 0)
(10.5801 0.573795 0)
(10.6109 0.57667 0)
(10.6409 0.578231 0)
(10.6701 0.578552 0)
(10.6985 0.577699 0)
(10.7259 0.575732 0)
(10.7524 0.572704 0)
(10.7778 0.568663 0)
(10.8022 0.563652 0)
(10.8255 0.557711 0)
(10.8475 0.55088 0)
(10.8683 0.543199 0)
(10.8877 0.534714 0)
(10.9056 0.525473 0)
(10.922 0.515553 0)
(10.9367 0.504967 0)
(10.9496 0.494225 0)
(10.9598 0.480966 0)
(10.0004 0.0202321 0)
(10.0036 0.0606795 0)
(10.0103 0.100777 0)
(10.0205 0.140142 0)
(10.0339 0.178436 0)
(10.0503 0.215367 0)
(10.0694 0.250688 0)
(10.0909 0.284194 0)
(10.1147 0.315727 0)
(10.1403 0.345176 0)
(10.1675 0.372472 0)
(10.196 0.397586 0)
(10.2256 0.420519 0)
(10.2559 0.441302 0)
(10.2868 0.459986 0)
(10.318 0.476641 0)
(10.3494 0.491345 0)
(10.3807 0.504188 0)
(10.4119 0.515261 0)
(10.4429 0.524656 0)
(10.4734 0.532467 0)
(10.5034 0.538782 0)
(10.5329 0.543686 0)
(10.5618 0.54726 0)
(10.5899 0.549579 0)
(10.6173 0.550712 0)
(10.6439 0.550721 0)
(10.6696 0.549667 0)
(10.6944 0.547601 0)
(10.7182 0.544574 0)
(10.7411 0.540633 0)
(10.7628 0.535824 0)
(10.7834 0.530192 0)
(10.8028 0.523785 0)
(10.821 0.516656 0)
(10.8378 0.508865 0)
(10.8531 0.50049 0)
(10.8669 0.49157 0)
(10.8791 0.482523 0)
(10.8887 0.471488 0)
(10.0003 0.0186023 0)
(10.0033 0.0557926 0)
(10.0092 0.0926868 0)
(10.0184 0.128962 0)
(10.0305 0.164329 0)
(10.0453 0.198538 0)
(10.0626 0.231373 0)
(10.0822 0.262649 0)
(10.1038 0.292223 0)
(10.1271 0.319986 0)
(10.152 0.345866 0)
(10.1782 0.369824 0)
(10.2053 0.391848 0)
(10.2333 0.411952 0)
(10.2618 0.430169 0)
(10.2908 0.446546 0)
(10.3199 0.461145 0)
(10.3491 0.474034 0)
(10.3782 0.485287 0)
(10.4071 0.49498 0)
(10.4357 0.503191 0)
(10.4638 0.509997 0)
(10.4915 0.515471 0)
(10.5186 0.519684 0)
(10.545 0.522704 0)
(10.5707 0.524594 0)
(10.5957 0.525415 0)
(10.6198 0.525222 0)
(10.6431 0.524069 0)
(10.6654 0.522005 0)
(10.6868 0.51908 0)
(10.7072 0.515344 0)
(10.7265 0.510845 0)
(10.7447 0.505637 0)
(10.7617 0.499778 0)
(10.7774 0.493332 0)
(10.7918 0.486381 0)
(10.8047 0.478976 0)
(10.8162 0.471462 0)
(10.8251 0.462382 0)
(10.0003 0.0171307 0)
(10.003 0.0513803 0)
(10.0084 0.0853789 0)
(10.0167 0.118853 0)
(10.0277 0.151557 0)
(10.0411 0.183275 0)
(10.0569 0.213819 0)
(10.0747 0.243025 0)
(10.0944 0.270762 0)
(10.1159 0.296926 0)
(10.1387 0.321446 0)
(10.1628 0.344276 0)
(10.1879 0.365396 0)
(10.2137 0.384805 0)
(10.2402 0.402522 0)
(10.2671 0.418578 0)
(10.2943 0.433019 0)
(10.3215 0.445897 0)
(10.3487 0.45727 0)
(10.3758 0.467199 0)
(10.4026 0.47575 0)
(10.429 0.482987 0)
(10.455 0.488973 0)
(10.4805 0.493771 0)
(10.5053 0.497441 0)
(10.5295 0.50004 0)
(10.553 0.501625 0)
(10.5757 0.502249 0)
(10.5976 0.501962 0)
(10.6187 0.500815 0)
(10.6388 0.498859 0)
(10.6579 0.496142 0)
(10.676 0.492719 0)
(10.6931 0.488643 0)
(10.709 0.483976 0)
(10.7237 0.478785 0)
(10.7372 0.47315 0)
(10.7494 0.467132 0)
(10.7603 0.461012 0)
(10.7686 0.453667 0)
(10.0003 0.015793 0)
(10.0027 0.0473693 0)
(10.0076 0.0787328 0)
(10.0152 0.109652 0)
(10.0253 0.139919 0)
(10.0376 0.169348 0)
(10.052 0.197774 0)
(10.0683 0.225054 0)
(10.0865 0.251067 0)
(10.1062 0.275718 0)
(10.1273 0.298936 0)
(10.1496 0.320672 0)
(10.1728 0.3409 0)
(10.1968 0.35961 0)
(10.2215 0.376807 0)
(10.2466 0.392512 0)
(10.2719 0.406756 0)
(10.2974 0.419576 0)
(10.3229 0.431019 0)
(10.3483 0.441134 0)
(10.3735 0.449972 0)
(10.3984 0.457588 0)
(10.4229 0.464036 0)
(10.4469 0.46937 0)
(10.4703 0.473643 0)
(10.4931 0.476906 0)
(10.5153 0.479211 0)
(10.5367 0.480608 0)
(10.5573 0.481145 0)
(10.5772 0.480871 0)
(10.5961 0.479837 0)
(10.6141 0.478091 0)
(10.6312 0.475687 0)
(10.6472 0.472682 0)
(10.6622 0.469137 0)
(10.676 0.465119 0)
(10.6888 0.460705 0)
(10.7002 0.455962 0)
(10.7106 0.451116 0)
(10.7183 0.445326 0)
(10.0003 0.0145685 0)
(10.0025 0.0436973 0)
(10.007 0.0726467 0)
(10.014 0.101222 0)
(10.0232 0.129245 0)
(10.0345 0.156559 0)
(10.0478 0.18302 0)
(10.0629 0.208502 0)
(10.0797 0.232896 0)
(10.098 0.256115 0)
(10.1175 0.27809 0)
(10.1382 0.298771 0)
(10.1598 0.318127 0)
(10.1822 0.336141 0)
(10.2053 0.35281 0)
(10.2287 0.368144 0)
(10.2525 0.382162 0)
(10.2764 0.394891 0)
(10.3004 0.406365 0)
(10.3243 0.416622 0)
(10.348 0.425704 0)
(10.3715 0.433655 0)
(10.3946 0.44052 0)
(10.4172 0.446346 0)
(10.4394 0.451178 0)
(10.4609 0.455063 0)
(10.4819 0.458047 0)
(10.5021 0.460176 0)
(10.5216 0.461495 0)
(10.5404 0.462052 0)
(10.5583 0.461893 0)
(10.5753 0.46107 0)
(10.5914 0.459634 0)
(10.6065 0.45764 0)
(10.6207 0.45515 0)
(10.6337 0.45223 0)
(10.6458 0.448952 0)
(10.6566 0.445385 0)
(10.6665 0.441711 0)
(10.6737 0.437328 0)
(10.0002 0.0134392 0)
(10.0023 0.040311 0)
(10.0065 0.0670327 0)
(10.013 0.0934413 0)
(10.0215 0.119388 0)
(10.032 0.144738 0)
(10.0443 0.169368 0)
(10.0584 0.193166 0)
(10.074 0.216038 0)
(10.091 0.237901 0)
(10.1092 0.258691 0)
(10.1285 0.278358 0)
(10.1487 0.296867 0)
(10.1697 0.314196 0)
(10.1913 0.330337 0)
(10.2133 0.345288 0)
(10.2357 0.359062 0)
(10.2582 0.371674 0)
(10.2808 0.383149 0)
(10.3033 0.393515 0)
(10.3257 0.402804 0)
(10.3479 0.411053 0)
(10.3697 0.418297 0)
(10.3912 0.424576 0)
(10.4121 0.42993 0)
(10.4326 0.434398 0)
(10.4524 0.438022 0)
(10.4716 0.440843 0)
(10.4901 0.442904 0)
(10.5078 0.444249 0)
(10.5247 0.444924 0)
(10.5409 0.444975 0)
(10.5561 0.444455 0)
(10.5704 0.443417 0)
(10.5838 0.441919 0)
(10.5962 0.440026 0)
(10.6076 0.437806 0)
(10.6179 0.435328 0)
(10.6274 0.432736 0)
(10.6341 0.429636 0)
(10.0002 0.0123895 0)
(10.0021 0.0371635 0)
(10.0061 0.0618138 0)
(10.0121 0.0862063 0)
(10.0201 0.110217 0)
(10.0299 0.133733 0)
(10.0414 0.156649 0)
(10.0545 0.178867 0)
(10.0691 0.200303 0)
(10.085 0.220882 0)
(10.1021 0.240543 0)
(10.1203 0.259238 0)
(10.1393 0.276929 0)
(10.159 0.293591 0)
(10.1793 0.309209 0)
(10.2001 0.323776 0)
(10.2212 0.337294 0)
(10.2424 0.349772 0)
(10.2638 0.361226 0)
(10.2851 0.371676 0)
(10.3063 0.381145 0)
(10.3273 0.38966 0)
(10.348 0.397252 0)
(10.3683 0.403951 0)
(10.3882 0.409791 0)
(10.4076 0.414807 0)
(10.4264 0.419035 0)
(10.4446 0.422512 0)
(10.4622 0.425277 0)
(10.479 0.42737 0)
(10.4951 0.428835 0)
(10.5104 0.429716 0)
(10.5249 0.430062 0)
(10.5385 0.429925 0)
(10.5512 0.42936 0)
(10.563 0.428428 0)
(10.5739 0.427195 0)
(10.5837 0.425727 0)
(10.5928 0.424136 0)
(10.5991 0.422212 0)
(10.0002 0.0114054 0)
(10.002 0.0342128 0)
(10.0057 0.056921 0)
(10.0114 0.0794226 0)
(10.0189 0.101617 0)
(10.0281 0.12341 0)
(10.039 0.144713 0)
(10.0514 0.165441 0)
(10.0651 0.18552 0)
(10.0801 0.204882 0)
(10.0963 0.223469 0)
(10.1134 0.241235 0)
(10.1313 0.25814 0)
(10.15 0.274156 0)
(10.1692 0.289263 0)
(10.1888 0.303449 0)
(10.2088 0.316709 0)
(10.2289 0.329045 0)
(10.2492 0.340464 0)
(10.2694 0.350979 0)
(10.2896 0.360606 0)
(10.3095 0.369364 0)
(10.3292 0.377277 0)
(10.3485 0.384368 0)
(10.3674 0.390666 0)
(10.3858 0.396199 0)
(10.4037 0.400999 0)
(10.421 0.405098 0)
(10.4377 0.408531 0)
(10.4537 0.411335 0)
(10.469 0.413549 0)
(10.4835 0.415216 0)
(10.4973 0.41638 0)
(10.5103 0.417092 0)
(10.5224 0.417403 0)
(10.5336 0.417371 0)
(10.544 0.417058 0)
(10.5534 0.416528 0)
(10.5622 0.415865 0)
(10.5682 0.415024 0)
(10.0002 0.0104741 0)
(10.0019 0.03142 0)
(10.0054 0.0522907 0)
(10.0108 0.0730038 0)
(10.018 0.0934807 0)
(10.0268 0.113645 0)
(10.0371 0.133422 0)
(10.0488 0.152741 0)
(10.0619 0.171534 0)
(10.0761 0.189741 0)
(10.0915 0.207307 0)
(10.1077 0.224186 0)
(10.1247 0.240339 0)
(10.1425 0.255735 0)
(10.1607 0.270349 0)
(10.1794 0.284164 0)
(10.1984 0.297169 0)
(10.2176 0.309361 0)
(10.2368 0.320739 0)
(10.2561 0.331308 0)
(10.2753 0.341078 0)
(10.2943 0.350062 0)
(10.313 0.358275 0)
(10.3314 0.365737 0)
(10.3494 0.372468 0)
(10.3669 0.378492 0)
(10.384 0.383836 0)
(10.4004 0.388526 0)
(10.4163 0.392594 0)
(10.4316 0.396074 0)
(10.4461 0.398999 0)
(10.46 0.40141 0)
(10.4731 0.403348 0)
(10.4855 0.40486 0)
(10.497 0.405994 0)
(10.5078 0.406804 0)
(10.5177 0.407348 0)
(10.5268 0.407689 0)
(10.5352 0.407885 0)
(10.5409 0.408043 0)
(10.0002 0.009583 0)
(10.0018 0.0287483 0)
(10.0052 0.0478623 0)
(10.0104 0.0668679 0)
(10.0173 0.0857073 0)
(10.0257 0.104321 0)
(10.0356 0.122648 0)
(10.0469 0.140627 0)
(10.0594 0.158199 0)
(10.073 0.175309 0)
(10.0877 0.191905 0)
(10.1032 0.207942 0)
(10.1195 0.223379 0)
(10.1364 0.238183 0)
(10.1539 0.252326 0)
(10.1717 0.265786 0)
(10.1898 0.278548 0)
(10.2082 0.290599 0)
(10.2266 0.301936 0)
(10.245 0.312556 0)
(10.2632 0.322462 0)
(10.2814 0.33166 0)
(10.2992 0.34016 0)
(10.3168 0.347975 0)
(10.334 0.35512 0)
(10.3507 0.361614 0)
(10.367 0.367477 0)
(10.3827 0.372732 0)
(10.3978 0.377407 0)
(10.4124 0.381529 0)
(10.4263 0.385131 0)
(10.4395 0.388247 0)
(10.452 0.390916 0)
(10.4638 0.393181 0)
(10.4748 0.395087 0)
(10.4851 0.396684 0)
(10.4947 0.398026 0)
(10.5034 0.399176 0)
(10.5115 0.400168 0)
(10.517 0.401246 0)
(10.0002 0.00871984 0)
(10.0018 0.0261604 0)
(10.0051 0.0435754 0)
(10.0102 0.0609339 0)
(10.0169 0.0781989 0)
(10.025 0.0953262 0)
(10.0346 0.112267 0)
(10.0455 0.128968 0)
(10.0576 0.145379 0)
(10.0708 0.161447 0)
(10.0849 0.177123 0)
(10.0999 0.192362 0)
(10.1155 0.207122 0)
(10.1318 0.221367 0)
(10.1485 0.235067 0)
(10.1657 0.248194 0)
(10.1831 0.260727 0)
(10.2006 0.272651 0)
(10.2182 0.283953 0)
(10.2359 0.294626 0)
(10.2534 0.304666 0)
(10.2707 0.314074 0)
(10.2878 0.322853 0)
(10.3046 0.33101 0)
(10.321 0.338555 0)
(10.337 0.345501 0)
(10.3525 0.351864 0)
(10.3675 0.357662 0)
(10.382 0.362917 0)
(10.3959 0.367653 0)
(10.4091 0.371898 0)
(10.4217 0.375684 0)
(10.4337 0.379045 0)
(10.445 0.382019 0)
(10.4555 0.384649 0)
(10.4654 0.386981 0)
(10.4746 0.389066 0)
(10.4829 0.390963 0)
(10.4909 0.39269 0)
(10.496 0.394611 0)
(10.0002 0.00787124 0)
(10.0018 0.0236164 0)
(10.0051 0.039366 0)
(10.0101 0.0551178 0)
(10.0167 0.070855 0)
(10.0247 0.0865474 0)
(10.0341 0.102156 0)
(10.0448 0.117637 0)
(10.0566 0.132941 0)
(10.0694 0.148021 0)
(10.0831 0.162828 0)
(10.0976 0.177316 0)
(10.1128 0.191442 0)
(10.1285 0.205166 0)
(10.1447 0.218455 0)
(10.1612 0.231276 0)
(10.1779 0.243604 0)
(10.1948 0.255417 0)
(10.2118 0.266697 0)
(10.2287 0.277432 0)
(10.2455 0.287612 0)
(10.2621 0.29723 0)
(10.2785 0.306286 0)
(10.2946 0.314779 0)
(10.3103 0.322715 0)
(10.3256 0.330101 0)
(10.3404 0.336948 0)
(10.3548 0.343269 0)
(10.3686 0.349082 0)
(10.3818 0.354406 0)
(10.3945 0.359265 0)
(10.4065 0.363687 0)
(10.418 0.367702 0)
(10.4287 0.371344 0)
(10.4389 0.374652 0)
(10.4483 0.37767 0)
(10.4571 0.380442 0)
(10.4652 0.38303 0)
(10.4729 0.385431 0)
(10.4779 0.388121 0)
(10.0002 0.00702216 0)
(10.0018 0.0210711 0)
(10.0051 0.0351623 0)
(10.0102 0.0493267 0)
(10.0168 0.0635675 0)
(10.0248 0.077866 0)
(10.0341 0.0921911 0)
(10.0447 0.106503 0)
(10.0563 0.120756 0)
(10.0689 0.134903 0)
(10.0823 0.148894 0)
(10.0965 0.162682 0)
(10.1113 0.17622 0)
(10.1265 0.189466 0)
(10.1422 0.202382 0)
(10.1582 0.21493 0)
(10.1744 0.227081 0)
(10.1907 0.238807 0)
(10.2071 0.250085 0)
(10.2233 0.260897 0)
(10.2395 0.271226 0)
(10.2555 0.281061 0)
(10.2712 0.290395 0)
(10.2866 0.299223 0)
(10.3017 0.307544 0)
(10.3163 0.315361 0)
(10.3305 0.32268 0)
(10.3442 0.329508 0)
(10.3574 0.335859 0)
(10.3701 0.341749 0)
(10.3822 0.347195 0)
(10.3937 0.352222 0)
(10.4046 0.356856 0)
(10.4149 0.361127 0)
(10.4246 0.36507 0)
(10.4337 0.368725 0)
(10.4421 0.372133 0)
(10.4499 0.375353 0)
(10.4574 0.378369 0)