/*--------------------------------*- C++ -*----------------------------------*\
| =========                 |                                                 |
| \\      /  F ield         | OpenFOAM: The Open Source CFD Toolbox           |
|  \\    /   O peration     | Version:  v1906                                 |
|   \\  /    A nd           | Web:      www.OpenFOAM.com                      |
|    \\/     M anipulation  |                                                 |
\*---------------------------------------------------------------------------*/
FoamFile
{
    version     2.0;
    format      ascii;
    class       volScalarField;
    location    "0.1";
    object      p;
}
// * * * * * * * * * * * * * * * * * * * * * * * * * * * * * * * * * * * * * //

dimensions      [0 2 -2 0 0 0 0];


internalField   nonuniform List<scalar> 
400
(
-1.71685e-12
-1.06517e-06
-2.73488e-06
-4.52319e-06
-6.40777e-06
-8.39727e-06
-1.04763e-05
-1.26264e-05
-1.4835e-05
-1.70978e-05
-1.9417e-05
-2.17972e-05
-2.42427e-05
-2.67528e-05
-2.93165e-05
-3.19058e-05
-3.44752e-05
-3.70038e-05
-3.94912e-05
-4.11963e-05
-3.78072e-07
-1.48759e-06
-3.20278e-06
-4.97026e-06
-6.80555e-06
-8.73512e-06
-1.07453e-05
-1.28176e-05
-1.49429e-05
-1.71202e-05
-1.93534e-05
-2.16481e-05
-2.40093e-05
-2.64366e-05
-2.8918e-05
-3.14264e-05
-3.39176e-05
-3.63944e-05
-3.89337e-05
-4.0748e-05
-6.69614e-07
-1.73145e-06
-3.46327e-06
-5.22752e-06
-7.02997e-06
-8.91796e-06
-1.08801e-05
-1.28989e-05
-1.4967e-05
-1.70849e-05
-1.92583e-05
-2.14934e-05
-2.37957e-05
-2.61647e-05
-2.85874e-05
-3.10373e-05
-3.3475e-05
-3.59295e-05
-3.85336e-05
-4.04233e-05
-9.59124e-07
-1.89739e-06
-3.61697e-06
-5.37285e-06
-7.14508e-06
-8.99641e-06
-1.09203e-05
-1.28993e-05
-1.49271e-05
-1.70037e-05
-1.91335e-05
-2.13226e-05
-2.35776e-05
-2.58995e-05
-2.82762e-05
-3.06806e-05
-3.30762e-05
-3.55124e-05
-3.8146e-05
-4.00286e-05
-1.25085e-06
-2.03579e-06
-3.71806e-06
-5.45777e-06
-7.19641e-06
-9.0103e-06
-1.08998e-05
-1.28466e-05
-1.48436e-05
-1.68899e-05
-1.89868e-05
-2.11376e-05
-2.33473e-05
-2.56181e-05
-2.79426e-05
-3.02987e-05
-3.26521e-05
-3.50609e-05
-3.76869e-05
-3.95195e-05
-1.51353e-06
-2.13519e-06
-3.7682e-06
-5.4858e-06
-7.18956e-06
-8.96823e-06
-1.08277e-05
-1.27482e-05
-1.47212e-05
-1.67438e-05
-1.88146e-05
-2.09336e-05
-2.31012e-05
-2.53174e-05
-2.75801e-05
-2.98764e-05
-3.21791e-05
-3.45506e-05
-3.71456e-05
-3.89079e-05
-1.71563e-06
-2.18308e-06
-3.76522e-06
-5.4585e-06
-7.12882e-06
-8.87608e-06
-1.07101e-05
-1.26097e-05
-1.45639e-05
-1.65657e-05
-1.86107e-05
-2.06971e-05
-2.28235e-05
-2.49868e-05
-2.71859e-05
-2.94163e-05
-3.16596e-05
-3.39828e-05
-3.65309e-05
-3.82237e-05
-1.83586e-06
-2.17254e-06
-3.71085e-06
-5.38313e-06
-7.02455e-06
-8.74422e-06
-1.05566e-05
-1.24394e-05
-1.4378e-05
-1.63601e-05
-1.83772e-05
-2.0426e-05
-2.25068e-05
-2.4618e-05
-2.67583e-05
-2.89255e-05
-3.11065e-05
-3.33709e-05
-3.58595e-05
-3.74948e-05
-1.85361e-06
-2.09434e-06
-3.60427e-06
-5.26387e-06
-6.88493e-06
-8.58388e-06
-1.03792e-05
-1.22472e-05
-1.41695e-05
-1.61303e-05
-1.81181e-05
-2.0128e-05
-2.21612e-05
-2.422e-05
-2.63055e-05
-2.84144e-05
-3.05329e-05
-3.27289e-05
-3.51478e-05
-3.67446e-05
-1.75123e-06
-1.93755e-06
-3.4408e-06
-5.09989e-06
-6.71307e-06
-8.40269e-06
-1.01879e-05
-1.20416e-05
-1.39432e-05
-1.58774e-05
-1.7834e-05
-1.98075e-05
-2.17974e-05
-2.38066e-05
-2.58383e-05
-2.78887e-05
-2.99412e-05
-3.20599e-05
-3.44027e-05
-3.59891e-05
-1.51547e-06
-1.69474e-06
-3.21598e-06
-4.88976e-06
-6.5098e-06
-8.20226e-06
-9.98348e-06
-1.18227e-05
-1.36995e-05
-1.56025e-05
-1.75266e-05
-1.94677e-05
-2.14213e-05
-2.33855e-05
-2.53621e-05
-2.73489e-05
-2.93298e-05
-3.13647e-05
-3.36303e-05
-3.52437e-05
-1.13942e-06
-1.36297e-06
-2.92936e-06
-4.63458e-06
-6.27545e-06
-7.97906e-06
-9.75851e-06
-1.15824e-05
-1.34342e-05
-1.53081e-05
-1.72034e-05
-1.91164e-05
-2.10378e-05
-2.29586e-05
-2.48778e-05
-2.67967e-05
-2.8704e-05
-3.06549e-05
-3.28473e-05
-3.45283e-05
-6.28208e-07
-9.45015e-07
-2.58341e-06
-4.33488e-06
-6.0076e-06
-7.72665e-06
-9.50417e-06
-1.13134e-05
-1.31458e-05
-1.50004e-05
-1.6876e-05
-1.87646e-05
-2.06519e-05
-2.25257e-05
-2.43857e-05
-2.62392e-05
-2.8079e-05
-2.99501e-05
-3.20753e-05
-3.38625e-05
-5.03888e-09
-4.58271e-07
-2.18871e-06
-3.99383e-06
-5.70407e-06
-7.44114e-06
-9.21935e-06
-1.102e-05
-1.28433e-05
-1.46908e-05
-1.6555e-05
-1.84195e-05
-2.02675e-05
-2.20913e-05
-2.3897e-05
-2.56954e-05
-2.74769e-05
-2.92702e-05
-3.13307e-05
-3.32646e-05
6.86266e-07
6.10516e-08
-1.76907e-06
-3.62255e-06
-5.36736e-06
-7.1239e-06
-8.91073e-06
-1.07161e-05
-1.25432e-05
-1.43909e-05
-1.62441e-05
-1.80814e-05
-1.98901e-05
-2.16717e-05
-2.34369e-05
-2.51922e-05
-2.69189e-05
-2.86311e-05
-3.06299e-05
-3.27545e-05
1.38826e-06
5.70643e-07
-1.35148e-06
-3.23515e-06
-5.00318e-06
-6.77957e-06
-8.58562e-06
-1.04114e-05
-1.22533e-05
-1.4102e-05
-1.59396e-05
-1.77505e-05
-1.95318e-05
-2.12899e-05
-2.3029e-05
-2.47454e-05
-2.64168e-05
-2.80501e-05
-2.99941e-05
-3.23425e-05
2.03844e-06
1.03559e-06
-9.536e-07
-2.84302e-06
-4.62217e-06
-6.41968e-06
-8.25439e-06
-1.01095e-05
-1.19686e-05
-1.38159e-05
-1.56403e-05
-1.74384e-05
-1.92125e-05
-2.09624e-05
-2.2682e-05
-2.43627e-05
-2.59851e-05
-2.7548e-05
-2.9443e-05
-3.20376e-05
2.59639e-06
1.44663e-06
-5.6591e-07
-2.44156e-06
-4.23127e-06
-6.0562e-06
-7.92361e-06
-9.80621e-06
-1.16795e-05
-1.35298e-05
-1.53562e-05
-1.71621e-05
-1.89445e-05
-2.06929e-05
-2.23991e-05
-2.40576e-05
-2.56428e-05
-2.71397e-05
-2.89913e-05
-3.1826e-05
3.03877e-06
1.84377e-06
-1.31102e-07
-1.99201e-06
-3.80568e-06
-5.66795e-06
-7.57046e-06
-9.47992e-06
-1.13731e-05
-1.3243e-05
-1.50934e-05
-1.69254e-05
-1.87283e-05
-2.04851e-05
-2.21872e-05
-2.38358e-05
-2.5405e-05
-2.68618e-05
-2.86886e-05
-3.18038e-05
3.48387e-06
2.31764e-06
4.23052e-07
-1.4373e-06
-3.29176e-06
-5.19992e-06
-7.14394e-06
-9.09124e-06
-1.10231e-05
-1.29378e-05
-1.48383e-05
-1.67164e-05
-1.8552e-05
-2.03322e-05
-2.20572e-05
-2.37194e-05
-2.52823e-05
-2.67142e-05
-2.85823e-05
-3.21442e-05
)
;

boundaryField
{
    movingWall
    {
        type            zeroGradient;
    }
    bottomWall
    {
        type            zeroGradient;
    }
    leftSide
    {
        type            zeroGradient;
    }
    rightSide
    {
        type            zeroGradient;
    }
    frontAndBack
    {
        type            empty;
    }
}


// ************************************************************************* //
