/*--------------------------------*- C++ -*----------------------------------*\
| =========                 |                                                 |
| \\      /  F ield         | OpenFOAM: The Open Source CFD Toolbox           |
|  \\    /   O peration     | Version:  v1906                                 |
|   \\  /    A nd           | Web:      www.OpenFOAM.com                      |
|    \\/     M anipulation  |                                                 |
\*---------------------------------------------------------------------------*/
FoamFile
{
    version     2.0;
    format      ascii;
    class       surfaceScalarField;
    location    "0.1";
    object      phi;
}
// * * * * * * * * * * * * * * * * * * * * * * * * * * * * * * * * * * * * * //

dimensions      [0 3 -1 0 0 0 0];
oriented        oriented;


internalField   nonuniform List<scalar> 
760
(
3.62196e-07
-8.3787e-12
3.62204e-07
-7.9251e-12
3.62211e-07
-6.71385e-12
3.62217e-07
-5.98002e-12
3.62222e-07
-5.28723e-12
3.62227e-07
-4.54394e-12
3.6223e-07
-3.7071e-12
3.62233e-07
-2.81604e-12
3.62235e-07
-1.89309e-12
3.62236e-07
-9.55125e-13
3.62236e-07
-1.00858e-14
3.62235e-07
9.31498e-13
3.62233e-07
1.87975e-12
3.6223e-07
2.84059e-12
3.62227e-07
3.82186e-12
3.62222e-07
4.84145e-12
3.62216e-07
5.94727e-12
3.62208e-07
7.41026e-12
3.62198e-07
1.01946e-11
1.25958e-11
1.10363e-06
-2.00878e-11
1.10364e-06
-1.99727e-11
1.10365e-06
-1.8328e-11
1.10366e-06
-1.68327e-11
1.10367e-06
-1.51158e-11
1.10368e-06
-1.3113e-11
1.10369e-06
-1.08092e-11
1.10369e-06
-8.28491e-12
1.1037e-06
-5.6106e-12
1.1037e-06
-2.83817e-12
1.1037e-06
4.25542e-15
1.1037e-06
2.89851e-12
1.10369e-06
5.83765e-12
1.10369e-06
8.8226e-12
1.10368e-06
1.18605e-11
1.10367e-06
1.49695e-11
1.10366e-06
1.82115e-11
1.10364e-06
2.18156e-11
1.10362e-06
2.70801e-11
3.10141e-11
1.89624e-06
-3.01508e-11
1.89625e-06
-3.0575e-11
1.89626e-06
-2.91027e-11
1.89627e-06
-2.73198e-11
1.89628e-06
-2.48712e-11
1.89629e-06
-2.17862e-11
1.8963e-06
-1.81207e-11
1.8963e-06
-1.40015e-11
1.89631e-06
-9.54922e-12
1.89631e-06
-4.85148e-12
1.89631e-06
3.40108e-14
1.89631e-06
5.07367e-12
1.8963e-06
1.02534e-11
1.8963e-06
1.55602e-11
1.89629e-06
2.09665e-11
1.89628e-06
2.64301e-11
1.89626e-06
3.19159e-11
1.89625e-06
3.74302e-11
1.89623e-06
4.43046e-11
4.89697e-11
2.77419e-06
-3.6877e-11
2.7742e-06
-3.78518e-11
2.7742e-06
-3.68778e-11
2.77421e-06
-3.51744e-11
2.77422e-06
-3.23882e-11
2.77423e-06
-2.86172e-11
2.77423e-06
-2.39675e-11
2.77424e-06
-1.86063e-11
2.77424e-06
-1.26979e-11
2.77424e-06
-6.36254e-12
2.77424e-06
3.20653e-13
2.77424e-06
7.29529e-12
2.77423e-06
1.45222e-11
2.77423e-06
2.19608e-11
2.77422e-06
2.95321e-11
2.77421e-06
3.71051e-11
2.7742e-06
4.44909e-11
2.77418e-06
5.14578e-11
2.77417e-06
5.94403e-11
6.45959e-11
3.77151e-06
-3.98428e-11
3.77151e-06
-4.12329e-11
3.77151e-06
-4.084e-11
3.77152e-06
-3.94048e-11
3.77152e-06
-3.6611e-11
3.77153e-06
-3.25681e-11
3.77153e-06
-2.73969e-11
3.77153e-06
-2.12891e-11
3.77153e-06
-1.44277e-11
3.77153e-06
-6.95263e-12
3.77153e-06
1.0384e-12
3.77153e-06
9.46901e-12
3.77153e-06
1.82721e-11
3.77152e-06
2.73678e-11
3.77152e-06
3.66183e-11
3.77151e-06
4.57964e-11
3.7715e-06
5.45797e-11
3.77149e-06
6.25611e-11
3.77147e-06
7.13619e-11
7.70354e-11
4.92183e-06
-3.8994e-11
4.92183e-06
-4.06633e-11
4.92183e-06
-4.08015e-11
4.92183e-06
-3.96879e-11
4.92183e-06
-3.71212e-11
4.92183e-06
-3.31734e-11
4.92183e-06
-2.7948e-11
4.92183e-06
-2.16306e-11
4.92183e-06
-1.43987e-11
4.92183e-06
-6.39575e-12
4.92183e-06
2.27214e-12
4.92183e-06
1.15185e-11
4.92183e-06
2.12571e-11
4.92182e-06
3.13709e-11
4.92182e-06
4.16756e-11
4.92181e-06
5.18738e-11
4.9218e-06
6.15537e-11
4.9218e-06
7.02001e-11
4.92179e-06
7.96466e-11
8.58961e-11
6.25793e-06
-3.4601e-11
6.25793e-06
-3.6413e-11
6.25793e-06
-3.69762e-11
6.25792e-06
-3.61584e-11
6.25792e-06
-3.39631e-11
6.25792e-06
-3.04065e-11
6.25791e-06
-2.55509e-11
6.25791e-06
-1.95422e-11
6.25791e-06
-1.25271e-11
6.25791e-06
-4.63293e-12
6.25791e-06
4.03849e-12
6.2579e-06
1.34022e-11
6.2579e-06
2.33674e-11
6.2579e-06
3.38013e-11
6.2579e-06
4.44957e-11
6.25789e-06
5.51247e-11
6.25789e-06
6.52354e-11
6.25789e-06
7.42746e-11
6.25788e-06
8.42443e-11
9.11356e-11
7.81101e-06
-2.71853e-11
7.811e-06
-2.90025e-11
7.81099e-06
-2.98707e-11
7.81098e-06
-2.92789e-11
7.81098e-06
-2.75301e-11
7.81097e-06
-2.45836e-11
7.81097e-06
-2.04475e-11
7.81096e-06
-1.52023e-11
7.81096e-06
-8.94162e-12
7.81096e-06
-1.75485e-12
7.81095e-06
6.27824e-12
7.81095e-06
1.50887e-11
7.81095e-06
2.45957e-11
7.81095e-06
3.46743e-11
7.81095e-06
4.51211e-11
7.81095e-06
5.56275e-11
7.81095e-06
6.57505e-11
7.81095e-06
7.495e-11
7.81095e-06
8.53334e-11
9.29127e-11
9.60972e-06
-1.74648e-11
9.60971e-06
-1.91521e-11
9.6097e-06
-2.02167e-11
9.60969e-06
-1.97667e-11
9.60968e-06
-1.84904e-11
9.60967e-06
-1.63011e-11
9.60966e-06
-1.31424e-11
9.60966e-06
-9.01757e-12
9.60965e-06
-3.95123e-12
9.60965e-06
2.02357e-12
9.60965e-06
8.86723e-12
9.60964e-06
1.65408e-11
9.60964e-06
2.49903e-11
9.60964e-06
3.41208e-11
9.60965e-06
4.37633e-11
9.60965e-06
5.3659e-11
9.60965e-06
6.34237e-11
9.60965e-06
7.25679e-11
9.60965e-06
8.32597e-11
9.15203e-11
1.16791e-05
-6.29606e-12
1.16791e-05
-7.74834e-12
1.1679e-05
-8.92041e-12
1.1679e-05
-8.54239e-12
1.1679e-05
-7.73328e-12
1.1679e-05
-6.38172e-12
1.1679e-05
-4.36195e-12
1.1679e-05
-1.59593e-12
1.1679e-05
1.96913e-12
1.1679e-05
6.36652e-12
1.1679e-05
1.1611e-11
1.1679e-05
1.77043e-11
1.1679e-05
2.46314e-11
1.1679e-05
3.23431e-11
1.1679e-05
4.07322e-11
1.1679e-05
4.96175e-11
1.1679e-05
5.87098e-11
1.1679e-05
6.75973e-11
1.1679e-05
7.84799e-11
8.73785e-11
1.40391e-05
5.34126e-12
1.40391e-05
4.19925e-12
1.40391e-05
2.97144e-12
1.40391e-05
3.32069e-12
1.4039e-05
3.67888e-12
1.4039e-05
4.17397e-12
1.4039e-05
4.9919e-12
1.4039e-05
6.29201e-12
1.4039e-05
8.20497e-12
1.4039e-05
1.08312e-11
1.4039e-05
1.42441e-11
1.4039e-05
1.84909e-11
1.4039e-05
2.36005e-11
1.4039e-05
2.95781e-11
1.4039e-05
3.63952e-11
1.4039e-05
4.39733e-11
1.4039e-05
5.21422e-11
1.4039e-05
6.05957e-11
1.4039e-05
7.1524e-11
8.1018e-11
1.67035e-05
1.63904e-11
1.67035e-05
1.56084e-11
1.67035e-05
1.43194e-11
1.67034e-05
1.46413e-11
1.67034e-05
1.45662e-11
1.67034e-05
1.42448e-11
1.67034e-05
1.39014e-11
1.67034e-05
1.37689e-11
1.67034e-05
1.4047e-11
1.67034e-05
1.48965e-11
1.67034e-05
1.64424e-11
1.67034e-05
1.87755e-11
1.67034e-05
2.19643e-11
1.67034e-05
2.60686e-11
1.67034e-05
3.11449e-11
1.67034e-05
3.7233e-11
1.67034e-05
4.42999e-11
1.67034e-05
5.21749e-11
1.67034e-05
6.29938e-11
7.30126e-11
1.96782e-05
2.57974e-11
1.96782e-05
2.53592e-11
1.96782e-05
2.39583e-11
1.96782e-05
2.41999e-11
1.96782e-05
2.37123e-11
1.96782e-05
2.26703e-11
1.96782e-05
2.13112e-11
1.96782e-05
1.99213e-11
1.96782e-05
1.87521e-11
1.96782e-05
1.80093e-11
1.96782e-05
1.78535e-11
1.96782e-05
1.84072e-11
1.96782e-05
1.97696e-11
1.96782e-05
2.20475e-11
1.96782e-05
2.53765e-11
1.96782e-05
2.9916e-11
1.96782e-05
3.57823e-11
1.96782e-05
4.29591e-11
1.96782e-05
5.35189e-11
6.39278e-11
2.29605e-05
3.25645e-11
2.29605e-05
3.23731e-11
2.29605e-05
3.07801e-11
2.29605e-05
3.08412e-11
2.29605e-05
2.99717e-11
2.29605e-05
2.83602e-11
2.29605e-05
2.6237e-11
2.29605e-05
2.39021e-11
2.29605e-05
2.16326e-11
2.29605e-05
1.96552e-11
2.29605e-05
1.8146e-11
2.29605e-05
1.72416e-11
2.29605e-05
1.70592e-11
2.29605e-05
1.77393e-11
2.29605e-05
1.94767e-11
2.29605e-05
2.25318e-11
2.29605e-05
2.71708e-11
2.29605e-05
3.35459e-11
2.29605e-05
4.36837e-11
5.4334e-11
2.65378e-05
3.58058e-11
2.65378e-05
3.57211e-11
2.65377e-05
3.3837e-11
2.65377e-05
3.36043e-11
2.65377e-05
3.24188e-11
2.65377e-05
3.04559e-11
2.65377e-05
2.79102e-11
2.65377e-05
2.50568e-11
2.65377e-05
2.21651e-11
2.65377e-05
1.94516e-11
2.65377e-05
1.70847e-11
2.65377e-05
1.51965e-11
2.65377e-05
1.39087e-11
2.65377e-05
1.33751e-11
2.65378e-05
1.38158e-11
2.65378e-05
1.55563e-11
2.65378e-05
1.90011e-11
2.65378e-05
2.44971e-11
2.65378e-05
3.40374e-11
4.48121e-11
3.03873e-05
3.48722e-11
3.03873e-05
3.47338e-11
3.03873e-05
3.2491e-11
3.03873e-05
3.19046e-11
3.03873e-05
3.05358e-11
3.03873e-05
2.85149e-11
3.03873e-05
2.5961e-11
3.03873e-05
2.30892e-11
3.03873e-05
2.01234e-11
3.03873e-05
1.72478e-11
3.03873e-05
1.46058e-11
3.03873e-05
1.23088e-11
3.03873e-05
1.04635e-11
3.03873e-05
9.20793e-12
3.03873e-05
8.74411e-12
3.03874e-05
9.42466e-12
3.03874e-05
1.17825e-11
3.03874e-05
1.63724e-11
3.03874e-05
2.51378e-11
3.58189e-11
3.44764e-05
2.95587e-11
3.44764e-05
2.91753e-11
3.44765e-05
2.6639e-11
3.44765e-05
2.57685e-11
3.44765e-05
2.44612e-11
3.44765e-05
2.27353e-11
3.44765e-05
2.0602e-11
3.44765e-05
1.82063e-11
3.44765e-05
1.57052e-11
3.44765e-05
1.3235e-11
3.44765e-05
1.09035e-11
3.44765e-05
8.78541e-12
3.44765e-05
6.94656e-12
3.44765e-05
5.4955e-12
3.44765e-05
4.60854e-12
3.44765e-05
4.58727e-12
3.44765e-05
5.97341e-12
3.44765e-05
9.57064e-12
3.44765e-05
1.73753e-11
2.7645e-11
3.87631e-05
2.03304e-11
3.87631e-05
1.96436e-11
3.87631e-05
1.70729e-11
3.87631e-05
1.61845e-11
3.87631e-05
1.52543e-11
3.87631e-05
1.41401e-11
3.87631e-05
1.27747e-11
3.87631e-05
1.1242e-11
3.87631e-05
9.63429e-12
3.87631e-05
8.02204e-12
3.87631e-05
6.45971e-12
3.87632e-05
4.99416e-12
3.87632e-05
3.67665e-12
3.87632e-05
2.5584e-12
3.87632e-05
1.70209e-12
3.87632e-05
1.33681e-12
3.87632e-05
1.99908e-12
3.87632e-05
4.56897e-12
3.87632e-05
1.11424e-11
2.01551e-11
4.31971e-05
8.73936e-12
4.31971e-05
7.99974e-12
4.31971e-05
6.24708e-12
4.31971e-05
5.71321e-12
4.31971e-05
5.36131e-12
4.31971e-05
4.96593e-12
4.31971e-05
4.47135e-12
4.31971e-05
3.92131e-12
4.31971e-05
3.34297e-12
4.31972e-05
2.75139e-12
4.31972e-05
2.16905e-12
4.31972e-05
1.60967e-12
4.31972e-05
1.08132e-12
4.31972e-05
6.12875e-13
4.31972e-05
2.14636e-13
4.31972e-05
-5.02148e-14
4.31972e-05
1.51747e-13
4.31972e-05
1.48419e-12
4.31972e-05
5.8141e-12
1.30986e-11
4.77221e-05
4.77221e-05
4.77221e-05
4.77221e-05
4.77221e-05
4.77221e-05
4.77221e-05
4.77221e-05
4.77221e-05
4.77221e-05
4.77221e-05
4.77221e-05
4.77222e-05
4.77222e-05
4.77222e-05
4.77222e-05
4.77222e-05
4.77222e-05
4.77222e-05
)
;

boundaryField
{
    movingWall
    {
        type            calculated;
        value           uniform 0;
    }
    bottomWall
    {
        type            calculated;
        value           uniform 0;
    }
    leftSide
    {
        type            calculated;
        value           nonuniform List<scalar> 
20
(
-3.62188e-07
-1.10361e-06
-1.89623e-06
-2.77418e-06
-3.7715e-06
-4.92183e-06
-6.25794e-06
-7.81101e-06
-9.60973e-06
-1.16791e-05
-1.40391e-05
-1.67035e-05
-1.96782e-05
-2.29605e-05
-2.65378e-05
-3.03873e-05
-3.44764e-05
-3.87631e-05
-4.31971e-05
-4.77221e-05
)
;
    }
    rightSide
    {
        type            calculated;
        value           nonuniform List<scalar> 
20
(
3.62186e-07
1.10361e-06
1.89621e-06
2.77415e-06
3.77146e-06
4.92178e-06
6.25788e-06
7.81094e-06
9.60966e-06
1.1679e-05
1.4039e-05
1.67034e-05
1.96782e-05
2.29605e-05
2.65378e-05
3.03874e-05
3.44765e-05
3.87632e-05
4.31972e-05
4.77222e-05
)
;
    }
    frontAndBack
    {
        type            empty;
        value           nonuniform 0();
    }
}


// ************************************************************************* //
