/*--------------------------------*- C++ -*----------------------------------*\
| =========                 |                                                 |
| \\      /  F ield         | OpenFOAM: The Open Source CFD Toolbox           |
|  \\    /   O peration     | Version:  v1906                                 |
|   \\  /    A nd           | Web:      www.OpenFOAM.com                      |
|    \\/     M anipulation  |                                                 |
\*---------------------------------------------------------------------------*/
FoamFile
{
    version     2.0;
    format      ascii;
    class       volVectorField;
    location    "0.1";
    object      U;
}
// * * * * * * * * * * * * * * * * * * * * * * * * * * * * * * * * * * * * * //

dimensions      [0 1 -1 0 0 0 0];


internalField   nonuniform List<vector> 
400
(
(0.00724383 -8.60623e-08 0)
(0.00724399 -7.31641e-08 0)
(0.00724415 -6.10746e-08 0)
(0.00724428 -5.30842e-08 0)
(0.00724439 -4.63953e-08 0)
(0.00724449 -3.95233e-08 0)
(0.00724458 -3.18918e-08 0)
(0.00724464 -2.38221e-08 0)
(0.00724469 -1.56004e-08 0)
(0.00724472 -7.44575e-09 0)
(0.00724473 5.46707e-10 0)
(0.00724472 8.34397e-09 0)
(0.00724469 1.60532e-08 0)
(0.00724464 2.37903e-08 0)
(0.00724457 3.15727e-08 0)
(0.00724449 3.94963e-08 0)
(0.00724438 4.81613e-08 0)
(0.00724425 6.11425e-08 0)
(0.00724405 8.72635e-08 0)
(0.00724381 1.23261e-07 0)
(0.0220724 -2.80066e-07 0)
(0.0220726 -2.76047e-07 0)
(0.0220729 -2.43595e-07 0)
(0.0220731 -2.20078e-07 0)
(0.0220733 -1.95572e-07 0)
(0.0220735 -1.68588e-07 0)
(0.0220737 -1.38028e-07 0)
(0.0220738 -1.0509e-07 0)
(0.0220739 -7.06318e-08 0)
(0.0220739 -3.54131e-08 0)
(0.022074 1.9122e-10 0)
(0.0220739 3.60034e-08 0)
(0.0220739 7.19778e-08 0)
(0.0220738 1.08311e-07 0)
(0.0220736 1.45339e-07 0)
(0.0220735 1.83612e-07 0)
(0.0220732 2.24612e-07 0)
(0.022073 2.74613e-07 0)
(0.0220726 3.58219e-07 0)
(0.0220722 4.19017e-07 0)
(0.0379247 -5.1632e-07 0)
(0.0379249 -5.16538e-07 0)
(0.0379251 -4.8321e-07 0)
(0.0379253 -4.48339e-07 0)
(0.0379255 -4.05038e-07 0)
(0.0379257 -3.52752e-07 0)
(0.0379259 -2.91858e-07 0)
(0.037926 -2.24486e-07 0)
(0.0379261 -1.5255e-07 0)
(0.0379262 -7.73714e-08 0)
(0.0379262 8.64927e-11 0)
(0.0379262 7.9265e-08 0)
(0.0379261 1.59996e-07 0)
(0.037926 2.42232e-07 0)
(0.0379258 3.26021e-07 0)
(0.0379256 4.11522e-07 0)
(0.0379254 4.99374e-07 0)
(0.0379251 5.91932e-07 0)
(0.0379247 7.15896e-07 0)
(0.0379244 8.05362e-07 0)
(0.0554837 -6.89331e-07 0)
(0.0554838 -7.03283e-07 0)
(0.055484 -6.77485e-07 0)
(0.0554842 -6.41213e-07 0)
(0.0554843 -5.86947e-07 0)
(0.0554845 -5.16192e-07 0)
(0.0554846 -4.30833e-07 0)
(0.0554847 -3.33827e-07 0)
(0.0554848 -2.28133e-07 0)
(0.0554848 -1.15852e-07 0)
(0.0554848 1.75777e-09 0)
(0.0554848 1.23809e-07 0)
(0.0554847 2.49663e-07 0)
(0.0554846 3.78724e-07 0)
(0.0554845 5.10021e-07 0)
(0.0554843 6.42075e-07 0)
(0.0554841 7.72914e-07 0)
(0.0554838 9.00105e-07 0)
(0.0554834 1.05101e-06 0)
(0.0554831 1.1497e-06 0)
(0.0754301 -7.88372e-07 0)
(0.0754301 -8.11504e-07 0)
(0.0754302 -7.97519e-07 0)
(0.0754303 -7.65537e-07 0)
(0.0754304 -7.08223e-07 0)
(0.0754305 -6.27953e-07 0)
(0.0754306 -5.27296e-07 0)
(0.0754306 -4.09953e-07 0)
(0.0754307 -2.79493e-07 0)
(0.0754307 -1.38623e-07 0)
(0.0754307 1.08491e-08 0)
(0.0754307 1.6769e-07 0)
(0.0754306 3.30986e-07 0)
(0.0754305 4.99522e-07 0)
(0.0754304 6.70844e-07 0)
(0.0754302 8.41174e-07 0)
(0.07543 1.00525e-06 0)
(0.0754298 1.15667e-06 0)
(0.0754295 1.32592e-06 0)
(0.0754293 1.43512e-06 0)
(0.0984367 -8.08007e-07 0)
(0.0984366 -8.38597e-07 0)
(0.0984366 -8.36215e-07 0)
(0.0984366 -8.10555e-07 0)
(0.0984366 -7.55947e-07 0)
(0.0984366 -6.74396e-07 0)
(0.0984366 -5.68189e-07 0)
(0.0984367 -4.41256e-07 0)
(0.0984367 -2.97364e-07 0)
(0.0984367 -1.39468e-07 0)
(0.0984366 3.02933e-08 0)
(0.0984366 2.10235e-07 0)
(0.0984366 3.98914e-07 0)
(0.0984365 5.94518e-07 0)
(0.0984364 7.9372e-07 0)
(0.0984363 9.90833e-07 0)
(0.0984362 1.17807e-06 0)
(0.098436 1.34584e-06 0)
(0.0984358 1.52911e-06 0)
(0.0984357 1.6488e-06 0)
(0.125159 -7.53568e-07 0)
(0.125159 -7.88369e-07 0)
(0.125159 -7.95733e-07 0)
(0.125158 -7.76503e-07 0)
(0.125158 -7.28247e-07 0)
(0.125158 -6.51887e-07 0)
(0.125158 -5.49129e-07 0)
(0.125158 -4.23445e-07 0)
(0.125158 -2.78179e-07 0)
(0.125158 -1.16079e-07 0)
(0.125158 6.0723e-08 0)
(0.125158 2.50366e-07 0)
(0.125158 4.50906e-07 0)
(0.125158 6.59796e-07 0)
(0.125158 8.73186e-07 0)
(0.125158 1.08458e-06 0)
(0.125158 1.28488e-06 0)
(0.125158 1.463e-06 0)
(0.125158 1.65779e-06 0)
(0.125158 1.78937e-06 0)
(0.15622 -6.32245e-07 0)
(0.15622 -6.68733e-07 0)
(0.15622 -6.83366e-07 0)
(0.15622 -6.69572e-07 0)
(0.15622 -6.29763e-07 0)
(0.156219 -5.63665e-07 0)
(0.156219 -4.72149e-07 0)
(0.156219 -3.57619e-07 0)
(0.156219 -2.22523e-07 0)
(0.156219 -6.90265e-08 0)
(0.156219 1.01083e-07 0)
(0.156219 2.86214e-07 0)
(0.156219 4.84429e-07 0)
(0.156219 6.92836e-07 0)
(0.156219 9.07168e-07 0)
(0.156219 1.12107e-06 0)
(0.156219 1.32536e-06 0)
(0.156219 1.50886e-06 0)
(0.156219 1.71301e-06 0)
(0.156219 1.858e-06 0)
(0.192195 -4.56707e-07 0)
(0.192194 -4.92056e-07 0)
(0.192194 -5.11758e-07 0)
(0.192194 -5.01641e-07 0)
(0.192194 -4.71249e-07 0)
(0.192193 -4.19204e-07 0)
(0.192193 -3.4514e-07 0)
(0.192193 -2.4995e-07 0)
(0.192193 -1.34846e-07 0)
(0.192193 -1.09437e-09 0)
(0.192193 1.50082e-07 0)
(0.192193 3.17617e-07 0)
(0.192193 5.00072e-07 0)
(0.192193 6.94998e-07 0)
(0.192193 8.98352e-07 0)
(0.192193 1.10438e-06 0)
(0.192193 1.30482e-06 0)
(0.192193 1.48933e-06 0)
(0.192193 1.70075e-06 0)
(0.192193 1.85983e-06 0)
(0.233582 -2.43059e-07 0)
(0.233581 -2.74498e-07 0)
(0.233581 -2.97189e-07 0)
(0.233581 -2.8912e-07 0)
(0.233581 -2.68318e-07 0)
(0.23358 -2.32742e-07 0)
(0.23358 -1.80492e-07 0)
(0.23358 -1.10737e-07 0)
(0.23358 -2.31781e-08 0)
(0.23358 8.21071e-08 0)
(0.23358 2.04718e-07 0)
(0.23358 3.44215e-07 0)
(0.23358 4.99911e-07 0)
(0.23358 6.70323e-07 0)
(0.23358 8.52531e-07 0)
(0.23358 1.04201e-06 0)
(0.23358 1.23201e-06 0)
(0.23358 1.41344e-06 0)
(0.23358 1.63002e-06 0)
(0.23358 1.80227e-06 0)
(0.280782 -9.42951e-09 0)
(0.280782 -3.56207e-08 0)
(0.280782 -5.96566e-08 0)
(0.280781 -5.25081e-08 0)
(0.280781 -4.09929e-08 0)
(0.280781 -2.27505e-08 0)
(0.280781 5.53657e-09 0)
(0.280781 4.63821e-08 0)
(0.28078 1.0168e-07 0)
(0.28078 1.72713e-07 0)
(0.28078 2.60192e-07 0)
(0.28078 3.64452e-07 0)
(0.28078 4.8566e-07 0)
(0.28078 6.2353e-07 0)
(0.28078 7.768e-07 0)
(0.28078 9.42791e-07 0)
(0.28078 1.11673e-06 0)
(0.280781 1.29118e-06 0)
(0.280781 1.51024e-06 0)
(0.280781 1.6945e-06 0)
(0.33407 2.23458e-07 0)
(0.334069 2.03759e-07 0)
(0.334069 1.78667e-07 0)
(0.334069 1.85366e-07 0)
(0.334069 1.87992e-07 0)
(0.334069 1.89305e-07 0)
(0.334068 1.93589e-07 0)
(0.334068 2.04845e-07 0)
(0.334068 2.26423e-07 0)
(0.334068 2.60925e-07 0)
(0.334068 3.10299e-07 0)
(0.334068 3.75866e-07 0)
(0.334068 4.58669e-07 0)
(0.334068 5.59573e-07 0)
(0.334068 6.79041e-07 0)
(0.334068 8.16596e-07 0)
(0.334068 9.69902e-07 0)
(0.334069 1.13389e-06 0)
(0.334069 1.35207e-06 0)
(0.334069 1.54784e-06 0)
(0.393565 4.34101e-07 0)
(0.393564 4.21664e-07 0)
(0.393564 3.94768e-07 0)
(0.393564 4.00482e-07 0)
(0.393564 3.9452e-07 0)
(0.393564 3.80246e-07 0)
(0.393564 3.62399e-07 0)
(0.393563 3.46181e-07 0)
(0.393563 3.36031e-07 0)
(0.393563 3.35645e-07 0)
(0.393563 3.4805e-07 0)
(0.393563 3.75599e-07 0)
(0.393563 4.20148e-07 0)
(0.393563 4.83462e-07 0)
(0.393563 5.6745e-07 0)
(0.393563 6.73924e-07 0)
(0.393564 8.03498e-07 0)
(0.393564 9.54352e-07 0)
(0.393564 1.16873e-06 0)
(0.393564 1.37414e-06 0)
(0.45921 6.01551e-07 0)
(0.45921 5.94975e-07 0)
(0.45921 5.65056e-07 0)
(0.45921 5.68215e-07 0)
(0.45921 5.54131e-07 0)
(0.459209 5.26655e-07 0)
(0.459209 4.90474e-07 0)
(0.459209 4.51551e-07 0)
(0.459209 4.1509e-07 0)
(0.459209 3.85461e-07 0)
(0.459209 3.66332e-07 0)
(0.459209 3.60719e-07 0)
(0.459209 3.70982e-07 0)
(0.459209 3.99455e-07 0)
(0.459209 4.49211e-07 0)
(0.459209 5.24408e-07 0)
(0.45921 6.29114e-07 0)
(0.45921 7.65019e-07 0)
(0.45921 9.73067e-07 0)
(0.45921 1.18458e-06 0)
(0.530755 7.06028e-07 0)
(0.530755 7.02606e-07 0)
(0.530755 6.67841e-07 0)
(0.530755 6.66319e-07 0)
(0.530755 6.45102e-07 0)
(0.530755 6.08049e-07 0)
(0.530755 5.59467e-07 0)
(0.530755 5.05136e-07 0)
(0.530755 4.50699e-07 0)
(0.530755 4.00823e-07 0)
(0.530755 3.5927e-07 0)
(0.530755 3.28952e-07 0)
(0.530755 3.12162e-07 0)
(0.530755 3.11562e-07 0)
(0.530755 3.31321e-07 0)
(0.530755 3.77847e-07 0)
(0.530755 4.58466e-07 0)
(0.530756 5.7791e-07 0)
(0.530756 7.75612e-07 0)
(0.530756 9.8959e-07 0)
(0.607746 7.3172e-07 0)
(0.607746 7.28433e-07 0)
(0.607746 6.86751e-07 0)
(0.607746 6.78572e-07 0)
(0.607746 6.52319e-07 0)
(0.607746 6.10908e-07 0)
(0.607746 5.57588e-07 0)
(0.607746 4.97354e-07 0)
(0.607746 4.3558e-07 0)
(0.607747 3.76732e-07 0)
(0.607747 3.24044e-07 0)
(0.607747 2.79637e-07 0)
(0.607747 2.4542e-07 0)
(0.607747 2.24486e-07 0)
(0.607747 2.21868e-07 0)
(0.607747 2.44895e-07 0)
(0.607747 3.0249e-07 0)
(0.607747 4.03279e-07 0)
(0.607747 5.87141e-07 0)
(0.607747 8.03587e-07 0)
(0.689529 6.66811e-07 0)
(0.689529 6.61507e-07 0)
(0.689529 6.12296e-07 0)
(0.689529 5.97327e-07 0)
(0.689529 5.69545e-07 0)
(0.689529 5.30432e-07 0)
(0.689529 4.81255e-07 0)
(0.68953 4.25957e-07 0)
(0.68953 3.68759e-07 0)
(0.68953 3.12988e-07 0)
(0.68953 2.60813e-07 0)
(0.68953 2.1378e-07 0)
(0.68953 1.73889e-07 0)
(0.68953 1.44046e-07 0)
(0.68953 1.28093e-07 0)
(0.68953 1.32937e-07 0)
(0.68953 1.70004e-07 0)
(0.68953 2.52567e-07 0)
(0.689531 4.19289e-07 0)
(0.68953 6.28019e-07 0)
(0.775261 5.17729e-07 0)
(0.775261 5.03005e-07 0)
(0.775262 4.49669e-07 0)
(0.775262 4.3098e-07 0)
(0.775262 4.07345e-07 0)
(0.775262 3.77651e-07 0)
(0.775262 3.41397e-07 0)
(0.775263 3.00936e-07 0)
(0.775263 2.58644e-07 0)
(0.775263 2.16392e-07 0)
(0.775263 1.75726e-07 0)
(0.775263 1.37877e-07 0)
(0.775263 1.0401e-07 0)
(0.775263 7.6014e-08 0)
(0.775263 5.66823e-08 0)
(0.775263 5.09154e-08 0)
(0.775263 6.98701e-08 0)
(0.775263 1.32527e-07 0)
(0.775264 2.78822e-07 0)
(0.775263 4.85288e-07 0)
(0.863941 2.84906e-07 0)
(0.863942 2.77049e-07 0)
(0.863942 2.28703e-07 0)
(0.863942 2.12809e-07 0)
(0.863942 1.99454e-07 0)
(0.863942 1.84495e-07 0)
(0.863943 1.66392e-07 0)
(0.863943 1.46277e-07 0)
(0.863943 1.25084e-07 0)
(0.863943 1.03371e-07 0)
(0.863943 8.17917e-08 0)
(0.863943 6.11386e-08 0)
(0.863943 4.23079e-08 0)
(0.863943 2.5901e-08 0)
(0.863943 1.20885e-08 0)
(0.863943 3.94447e-09 0)
(0.863943 1.07653e-08 0)
(0.863943 5.02512e-08 0)
(0.863943 1.69844e-07 0)
(0.863943 3.34321e-07 0)
(0.954442 9.48503e-08 0)
(0.954442 7.14695e-08 0)
(0.954442 5.61603e-08 0)
(0.954442 4.98214e-08 0)
(0.954442 4.60497e-08 0)
(0.954443 4.23826e-08 0)
(0.954443 3.82284e-08 0)
(0.954443 3.37665e-08 0)
(0.954443 2.87325e-08 0)
(0.954443 2.3018e-08 0)
(0.954443 1.72302e-08 0)
(0.954443 1.19873e-08 0)
(0.954443 7.29671e-09 0)
(0.954443 2.86795e-09 0)
(0.954443 -2.02177e-09 0)
(0.954443 -6.56511e-09 0)
(0.954443 -5.57796e-09 0)
(0.954443 8.55357e-09 0)
(0.954443 5.60059e-08 0)
(0.954443 1.41813e-07 0)
)
;

boundaryField
{
    movingWall
    {
        type            fixedValue;
        value           uniform (1 0 0);
    }
    bottomWall
    {
        type            noSlip;
    }
    leftSide
    {
        type            zeroGradient;
    }
    rightSide
    {
        type            zeroGradient;
    }
    frontAndBack
    {
        type            empty;
    }
}


// ************************************************************************* //
