/*--------------------------------*- C++ -*----------------------------------*\
| =========                 |                                                 |
| \\      /  F ield         | OpenFOAM: The Open Source CFD Toolbox           |
|  \\    /   O peration     | Version:  v1906                                 |
|   \\  /    A nd           | Web:      www.OpenFOAM.com                      |
|    \\/     M anipulation  |                                                 |
\*---------------------------------------------------------------------------*/
FoamFile
{
    version     2.0;
    format      ascii;
    class       volScalarField;
    location    "0.9";
    object      p;
}
// * * * * * * * * * * * * * * * * * * * * * * * * * * * * * * * * * * * * * //

dimensions      [0 2 -2 0 0 0 0];


internalField   nonuniform List<scalar> 
4800
(
-8.78406e-11
2.38506e-05
-1.01273e-05
-8.22406e-05
-0.000140889
-0.000247887
-0.000375664
-0.000358406
-0.000379942
-0.000400315
-0.000398684
-0.000397597
-0.0003577
-0.000271777
-0.000120819
7.31628e-05
0.000358926
0.000780689
0.00129517
0.00194246
1.1892e-05
2.07053e-05
-7.71897e-06
-8.50202e-05
-0.000137334
-0.000250148
-0.000360364
-0.000360769
-0.000373207
-0.000401019
-0.000393906
-0.000399024
-0.000351526
-0.000274841
-0.000117773
7.68255e-05
0.000354816
0.000735261
0.00113254
0.00160675
1.45635e-05
1.83921e-05
-6.47068e-06
-8.59178e-05
-0.000135679
-0.00024993
-0.000354995
-0.000360594
-0.000370643
-0.0003987
-0.000393853
-0.000397847
-0.000351077
-0.000272788
-0.000124008
6.73258e-05
0.000313803
0.000633048
0.000948604
0.00134148
2.4979e-05
1.55652e-05
-4.9311e-06
-8.65902e-05
-0.000134796
-0.000248317
-0.000349307
-0.000356801
-0.000371813
-0.00039313
-0.00039383
-0.000393467
-0.000346269
-0.000269907
-0.000136155
4.80462e-05
0.000247779
0.000488016
0.00076542
0.00113345
3.14889e-05
1.33981e-05
-4.13789e-06
-8.62427e-05
-0.000134634
-0.00024443
-0.000346264
-0.000351687
-0.000371314
-0.000389102
-0.00038953
-0.00038892
-0.000343465
-0.000271327
-0.000156167
7.17222e-07
0.00014389
0.000329473
0.000597894
0.000951764
4.0313e-05
1.27754e-05
-4.60024e-06
-8.4114e-05
-0.000136555
-0.000237115
-0.000343741
-0.00034793
-0.00036536
-0.000384772
-0.000383447
-0.000384752
-0.000343618
-0.000280506
-0.000190256
-8.5114e-05
1.00159e-05
0.000185457
0.000448367
0.00078148
4.79012e-05
1.39261e-05
-6.5275e-06
-8.10203e-05
-0.00013949
-0.000230693
-0.000336702
-0.000346767
-0.000358738
-0.000377534
-0.000378306
-0.00038162
-0.00034938
-0.00030461
-0.000267011
-0.000204853
-0.000106046
6.20782e-05
0.000304981
0.000612053
5.55182e-05
1.76065e-05
-9.07307e-06
-7.79188e-05
-0.000139516
-0.0002295
-0.000325453
-0.000340122
-0.000353778
-0.000370462
-0.000373738
-0.000383629
-0.000371102
-0.000365277
-0.000368498
-0.000306762
-0.000200679
-5.41059e-05
0.000155514
0.000436211
6.12956e-05
2.40675e-05
-1.09734e-05
-7.74716e-05
-0.000136275
-0.000227057
-0.000317309
-0.000327689
-0.000345669
-0.000367236
-0.000372863
-0.000399889
-0.0004196
-0.000446793
-0.000452107
-0.000390445
-0.000291854
-0.000174054
-2.00987e-06
0.000252156
6.7753e-05
3.14796e-05
-9.90164e-06
-7.9208e-05
-0.000131361
-0.000219841
-0.000311464
-0.000317814
-0.000333223
-0.000366627
-0.000385888
-0.000435674
-0.000495761
-0.00051832
-0.000519268
-0.000472028
-0.000391745
-0.000300995
-0.000165735
6.23375e-05
7.26904e-05
3.87929e-05
-4.6318e-06
-7.94224e-05
-0.000131527
-0.000206844
-0.000299981
-0.000312792
-0.000323465
-0.000369053
-0.000422684
-0.00049934
-0.000559439
-0.000575777
-0.000581747
-0.000558446
-0.000502312
-0.000435937
-0.000332233
-0.000128762
7.81861e-05
4.52895e-05
4.81164e-06
-7.48604e-05
-0.000135664
-0.000196977
-0.000281648
-0.000307952
-0.000327244
-0.000387202
-0.000470517
-0.000558811
-0.000617852
-0.000634234
-0.00064878
-0.000650675
-0.000622958
-0.000579266
-0.00050078
-0.000319821
8.39643e-05
5.15452e-05
1.3044e-05
-6.29972e-05
-0.000134012
-0.000195682
-0.000264239
-0.000299231
-0.000347255
-0.000429608
-0.000517189
-0.000607229
-0.000674236
-0.000698391
-0.000722625
-0.000749198
-0.000751826
-0.000730186
-0.000671023
-0.000509073
9.04003e-05
5.84541e-05
1.95045e-05
-4.5704e-05
-0.000122091
-0.000200529
-0.000263288
-0.000292792
-0.000369004
-0.000484289
-0.000573122
-0.000652991
-0.000727633
-0.000768401
-0.000806051
-0.000853876
-0.000885783
-0.000886546
-0.000842558
-0.000695635
9.764e-05
6.71811e-05
2.5456e-05
-3.21202e-05
-9.95183e-05
-0.000195687
-0.000282708
-0.000312807
-0.000388569
-0.000526279
-0.000628394
-0.000705403
-0.00078546
-0.000845096
-0.000899284
-0.000964232
-0.00102245
-0.00104722
-0.00101821
-0.000882616
0.000104032
7.95665e-05
3.42146e-05
-2.3787e-05
-7.86031e-05
-0.000179605
-0.000302986
-0.000363671
-0.00042152
-0.00055284
-0.000675928
-0.000762146
-0.000849461
-0.000927335
-0.000999766
-0.00108011
-0.00116156
-0.00121151
-0.00119845
-0.00107097
0.000111848
9.1647e-05
4.93861e-05
-1.96826e-05
-7.00029e-05
-0.000161723
-0.000313734
-0.000416632
-0.000483062
-0.000593267
-0.000716177
-0.000816715
-0.000915979
-0.00101288
-0.00110616
-0.00120286
-0.00130414
-0.00137724
-0.00138044
-0.00126024
0.000122273
0.000102669
6.73076e-05
-1.01113e-05
-7.68928e-05
-0.000158658
-0.000315296
-0.000458083
-0.000547136
-0.000650491
-0.000767592
-0.000874445
-0.000985632
-0.0011014
-0.00121767
-0.00133249
-0.00144981
-0.00154202
-0.00156129
-0.00144976
0.00013556
0.000114597
8.14181e-05
5.37971e-06
-8.57421e-05
-0.000178194
-0.000325098
-0.000484816
-0.000601231
-0.000715942
-0.00083422
-0.000943327
-0.00106233
-0.00119381
-0.00133303
-0.00146747
-0.00159829
-0.00170592
-0.00174045
-0.00163877
0.000151483
0.000128769
9.15258e-05
1.66323e-05
-9.1408e-05
-0.000207704
-0.00035359
-0.000509751
-0.000643197
-0.000776164
-0.000905997
-0.00102334
-0.00114914
-0.00129267
-0.00145132
-0.00160616
-0.00175039
-0.00187059
-0.00191828
-0.0018261
0.000169158
0.000145753
9.98387e-05
1.91346e-05
-9.78336e-05
-0.000237051
-0.000392637
-0.000547173
-0.000684271
-0.000828905
-0.000976544
-0.00110918
-0.0012461
-0.00139973
-0.00157327
-0.00174768
-0.0019065
-0.00203701
-0.0020946
-0.00201021
0.000188738
0.000164023
0.000106923
1.43121e-05
-0.000112855
-0.000264664
-0.000431822
-0.000592397
-0.000732148
-0.000883253
-0.0010457
-0.00119673
-0.00134846
-0.00151425
-0.00169977
-0.00189129
-0.00206568
-0.00220528
-0.00226961
-0.00219075
0.000209683
0.000182416
0.000112368
4.27e-06
-0.000135713
-0.000295913
-0.000470766
-0.000639937
-0.000786839
-0.000942612
-0.00111667
-0.00128593
-0.00145393
-0.00163367
-0.00183114
-0.00203625
-0.00222536
-0.00237429
-0.00244386
-0.00236855
0.000231032
0.000200353
0.000115266
-9.45245e-06
-0.000162554
-0.000333302
-0.000513279
-0.000689334
-0.000844876
-0.00100668
-0.00119056
-0.00137702
-0.00156251
-0.00175653
-0.00196621
-0.0021824
-0.00238388
-0.00254268
-0.00261759
-0.00254457
0.000251676
0.000216655
0.000115768
-2.66482e-05
-0.000192917
-0.000373352
-0.00055958
-0.000741999
-0.000906675
-0.00107577
-0.00126803
-0.00146997
-0.00167354
-0.00188213
-0.00210375
-0.00233006
-0.00254118
-0.00270889
-0.00278912
-0.0027179
0.00027024
0.000230219
0.000114457
-4.66437e-05
-0.000225879
-0.000415511
-0.000609052
-0.000798607
-0.000972517
-0.00114998
-0.00135026
-0.00156487
-0.00178564
-0.00200914
-0.00224227
-0.00247829
-0.00269718
-0.00287212
-0.00295708
-0.00288761
0.000285732
0.000240243
0.000110897
-6.77064e-05
-0.000261454
-0.000460145
-0.000660701
-0.000858738
-0.00104234
-0.00122838
-0.00143708
-0.00166215
-0.00189761
-0.0021369
-0.00238091
-0.00262543
-0.00285102
-0.00303178
-0.00312093
-0.00305298
0.000297162
0.00024587
0.000104482
-8.95181e-05
-0.000298073
-0.000507014
-0.000714368
-0.000920765
-0.00111563
-0.00131051
-0.00152769
-0.00176272
-0.00200933
-0.00226346
-0.00251884
-0.00277055
-0.00300177
-0.00318673
-0.00327971
-0.00321325
0.000303436
0.000246458
9.47453e-05
-0.000112112
-0.000334277
-0.000554931
-0.000770203
-0.000984303
-0.00119069
-0.00139583
-0.00162113
-0.00186603
-0.00212154
-0.00238671
-0.00265393
-0.00291335
-0.00314946
-0.00333675
-0.00343226
-0.00336755
0.000303535
0.000241532
8.15128e-05
-0.00013589
-0.000370102
-0.000602526
-0.000827031
-0.00104904
-0.00126629
-0.00148266
-0.00171589
-0.00197002
-0.00223491
-0.00250754
-0.00278397
-0.00305193
-0.00329333
-0.0034823
-0.00357816
-0.00351434
0.000296715
0.000230622
6.4319e-05
-0.00016103
-0.000405306
-0.000649054
-0.000883394
-0.00111378
-0.00134151
-0.00156954
-0.0018109
-0.00207237
-0.00234706
-0.00262703
-0.00290878
-0.00318358
-0.0034311
-0.00362296
-0.00371825
-0.00365338
0.000282285
0.000213202
4.2922e-05
-0.000187678
-0.00043953
-0.000693446
-0.000938198
-0.00117758
-0.00141482
-0.00165435
-0.00190511
-0.00217221
-0.002454
-0.00274258
-0.00302926
-0.00330772
-0.00356018
-0.0037561
-0.00385226
-0.00378568
0.000259855
0.000188856
1.71779e-05
-0.000215903
-0.000472823
-0.000734999
-0.000989822
-0.00123895
-0.00148536
-0.00173463
-0.00199542
-0.00226915
-0.00255443
-0.0028494
-0.0031428
-0.00342396
-0.00367852
-0.00387742
-0.00397622
-0.00391
0.000229271
0.000157396
-1.3237e-05
-0.000245791
-0.000505046
-0.000773606
-0.00103718
-0.00129567
-0.00155189
-0.00180907
-0.00207767
-0.00236016
-0.00264846
-0.00294488
-0.00324385
-0.00352882
-0.00378453
-0.00398448
-0.00408519
-0.00402085
0.000190711
0.000118866
-4.8612e-05
-0.000277588
-0.000536038
-0.00080888
-0.00108001
-0.00134607
-0.00161224
-0.00187775
-0.00214999
-0.00244016
-0.00273443
-0.00302946
-0.00332924
-0.00361777
-0.00387545
-0.00407542
-0.00417619
-0.00411346
0.000145228
7.38743e-05
-8.91353e-05
-0.000312208
-0.000566267
-0.000839928
-0.00111744
-0.00138955
-0.00166295
-0.00193927
-0.00221454
-0.00250672
-0.00280842
-0.00310373
-0.00339944
-0.00368735
-0.00394616
-0.00414569
-0.0042442
-0.00418033
9.4705e-05
2.39082e-05
-0.000134165
-0.000350743
-0.000599204
-0.000868705
-0.00114822
-0.00142553
-0.00170182
-0.00198734
-0.00227021
-0.00256002
-0.0028654
-0.00316373
-0.00345421
-0.00373636
-0.00399187
-0.00418929
-0.00428371
-0.00421498
4.26075e-05
-2.76558e-05
-0.000181738
-0.000393131
-0.000637218
-0.000903558
-0.00118155
-0.00146049
-0.00173349
-0.00201717
-0.0023069
-0.0025938
-0.00289472
-0.00319812
-0.00348883
-0.00376612
-0.00401715
-0.00421448
-0.00431148
-0.00424541
-6.21548e-06
-7.60484e-05
-0.000227257
-0.00043367
-0.000673968
-0.000939692
-0.00121824
-0.00150205
-0.00177785
-0.0020519
-0.00233231
-0.00260523
-0.00287662
-0.00315222
-0.00341883
-0.00366995
-0.00389514
-0.00407189
-0.00415881
-0.00409535
-5.18074e-05
-0.000125843
-0.000278754
-0.000486123
-0.000728585
-0.000999701
-0.00128564
-0.00157927
-0.00187026
-0.00215483
-0.00243942
-0.00271356
-0.0029661
-0.00319922
-0.00340454
-0.00357044
-0.00368616
-0.00373697
-0.00369964
-0.00354045
0.00277702
0.00315753
0.00319285
0.00313335
0.00304505
0.00291611
0.00272693
0.00248022
0.00218652
0.00185594
0.00150576
0.00116388
0.000838087
0.000516251
0.000180922
-0.000170671
-0.000538057
-0.000933199
-0.0013694
-0.00186008
-0.00241401
-0.00303732
-0.00372035
-0.00445312
-0.0052032
-0.00591051
-0.00649398
-0.00686635
-0.00698151
-0.006853
-0.00656517
-0.0062116
-0.00585922
-0.00553936
-0.00526885
-0.00506189
-0.00491536
-0.00482223
-0.00477242
-0.00475776
-0.00475993
-0.0047733
-0.00480734
-0.00485395
-0.00490553
-0.00495561
-0.00500906
-0.00506276
-0.00510877
-0.0051571
-0.00520239
-0.00524978
-0.00530013
-0.00534171
-0.00539249
-0.00544607
-0.00548346
-0.00552251
-0.0055663
-0.00561371
-0.0056657
-0.00570275
-0.00573848
-0.00578689
-0.00582731
-0.00586459
-0.00590257
-0.00594153
-0.00598304
-0.00600832
-0.00603687
-0.00607774
-0.00609872
-0.00612815
-0.00617231
-0.006175
-0.00617606
-0.00621988
-0.00624894
-0.00624032
-0.00623967
-0.00626168
-0.0062761
-0.00626942
-0.00626291
-0.00626969
-0.00626859
-0.00625567
-0.00624942
-0.00624424
-0.0062308
-0.00621555
-0.00620375
-0.00618904
-0.00616948
-0.00615016
-0.00612919
-0.0061064
-0.00608064
-0.00605361
0.00222998
0.0028006
0.00308835
0.00311705
0.00302749
0.00288354
0.00269024
0.00244713
0.00215805
0.00183022
0.00148081
0.00113921
0.000814337
0.00049384
0.000159484
-0.000191395
-0.000557622
-0.000950953
-0.001385
-0.00187271
-0.00242221
-0.00303996
-0.00371537
-0.00443699
-0.00517443
-0.00587041
-0.00644852
-0.00682549
-0.00694988
-0.00683007
-0.00654864
-0.00619915
-0.00584886
-0.00553082
-0.00526172
-0.00505584
-0.0049099
-0.00481727
-0.00476776
-0.00475352
-0.00475601
-0.00476949
-0.00480384
-0.00485064
-0.00490239
-0.00495262
-0.0050062
-0.00506019
-0.00510633
-0.0051548
-0.0052003
-0.00524784
-0.00529834
-0.00533996
-0.00539088
-0.00544466
-0.0054821
-0.00552123
-0.0055651
-0.0056126
-0.00566473
-0.00570177
-0.00573753
-0.0057861
-0.00582653
-0.00586383
-0.00590187
-0.00594087
-0.0059825
-0.00600777
-0.00603631
-0.0060773
-0.00609827
-0.00612771
-0.00617202
-0.00617465
-0.00617566
-0.00621962
-0.00624874
-0.00624006
-0.00623941
-0.00626149
-0.00627594
-0.00626926
-0.00626274
-0.00626956
-0.00626849
-0.00625555
-0.00624932
-0.00624416
-0.00623073
-0.00621548
-0.00620369
-0.006189
-0.00616944
-0.00615013
-0.00612916
-0.00610637
-0.00608063
-0.00605352
0.00192706
0.00258663
0.0030275
0.00314719
0.00306221
0.00289153
0.00267721
0.0024258
0.00213527
0.00180711
0.00145609
0.00111232
0.000786418
0.000465586
0.000131027
-0.000220166
-0.000586159
-0.000977812
-0.00140903
-0.00189251
-0.00243509
-0.00304248
-0.00370339
-0.00440348
-0.00511372
-0.00578177
-0.00633991
-0.00671241
-0.00685124
-0.00675858
-0.00650353
-0.00617247
-0.00583304
-0.00552137
-0.00525771
-0.0050559
-0.00491213
-0.00482003
-0.00477027
-0.00475542
-0.00475741
-0.00477065
-0.00480454
-0.00485086
-0.0049022
-0.00495198
-0.00500527
-0.00505892
-0.00510486
-0.00515339
-0.00519877
-0.00524629
-0.00529688
-0.00533835
-0.00538915
-0.00544291
-0.00548039
-0.0055197
-0.00556365
-0.0056111
-0.00566328
-0.00570039
-0.00573619
-0.00578483
-0.00582533
-0.0058627
-0.00590076
-0.00593976
-0.00598148
-0.00600682
-0.00603545
-0.00607655
-0.00609747
-0.00612692
-0.00617141
-0.00617408
-0.00617506
-0.00621912
-0.00624829
-0.00623962
-0.00623902
-0.00626117
-0.00627565
-0.00626897
-0.00626249
-0.00626936
-0.00626832
-0.00625538
-0.00624918
-0.00624405
-0.00623062
-0.00621538
-0.00620362
-0.00618894
-0.00616939
-0.00615009
-0.00612913
-0.00610636
-0.00608069
-0.00605348
0.00169224
0.00236864
0.00289458
0.00310277
0.00305554
0.00288077
0.00265002
0.0023881
0.00209463
0.00176698
0.00141621
0.00107202
0.000746221
0.000425699
9.15192e-05
-0.000259328
-0.000624205
-0.00101302
-0.00143988
-0.00191723
-0.00245034
-0.00304325
-0.0036845
-0.00435945
-0.0050387
-0.00567535
-0.00621024
-0.00657704
-0.00673175
-0.00666983
-0.00644647
-0.00613853
-0.00581315
-0.0055102
-0.0052522
-0.00505406
-0.00491205
-0.00482028
-0.00477015
-0.00475434
-0.00475602
-0.00476939
-0.00480299
-0.0048489
-0.00489978
-0.00494925
-0.00500216
-0.00505536
-0.00510141
-0.00515012
-0.00519542
-0.00524318
-0.00529405
-0.00533545
-0.00538609
-0.00543971
-0.00547731
-0.00551715
-0.00556134
-0.00560857
-0.00566078
-0.00569817
-0.00573403
-0.00578265
-0.00582329
-0.00586088
-0.00589892
-0.00593774
-0.00597954
-0.00600514
-0.00603391
-0.00607505
-0.00609593
-0.00612533
-0.00616996
-0.00617284
-0.0061739
-0.00621787
-0.00624705
-0.00623859
-0.00623814
-0.00626027
-0.00627475
-0.00626818
-0.0062618
-0.00626872
-0.00626772
-0.00625484
-0.00624871
-0.00624361
-0.00623023
-0.00621504
-0.00620332
-0.00618867
-0.00616916
-0.0061499
-0.00612899
-0.00610624
-0.00608078
-0.00605344
0.00147874
0.00214592
0.00272227
0.00301513
0.00303
0.00287151
0.00263332
0.00236049
0.00206004
0.00172903
0.00137658
0.00103166
0.000706212
0.00038618
5.23975e-05
-0.000297705
-0.000661105
-0.00104712
-0.00146947
-0.00193971
-0.00246186
-0.00303835
-0.00365761
-0.00430488
-0.0049523
-0.00555814
-0.00607068
-0.00643182
-0.00660116
-0.00656938
-0.00637965
-0.00609822
-0.00578997
-0.00549742
-0.00524522
-0.0050503
-0.00491003
-0.00481898
-0.00476882
-0.00475247
-0.00475411
-0.00476788
-0.00480134
-0.00484672
-0.00489719
-0.00494625
-0.00499869
-0.00505144
-0.00509746
-0.00514634
-0.00519157
-0.00523958
-0.00529079
-0.00533196
-0.00538227
-0.00543563
-0.00547333
-0.00551384
-0.00555829
-0.00560516
-0.0056573
-0.00569507
-0.00573109
-0.00577948
-0.00582026
-0.00585831
-0.0058962
-0.0059346
-0.00597657
-0.00600259
-0.00603145
-0.00607264
-0.00609355
-0.00612271
-0.00616739
-0.00617085
-0.00617209
-0.00621566
-0.00624481
-0.00623684
-0.00623664
-0.00625863
-0.00627311
-0.00626678
-0.00626055
-0.00626751
-0.0062666
-0.00625387
-0.00624781
-0.00624277
-0.00622949
-0.00621439
-0.00620272
-0.00618813
-0.00616869
-0.0061495
-0.00612867
-0.00610596
-0.00608079
-0.00605338
0.00127474
0.00192566
0.0025382
0.00290442
0.00298856
0.00286288
0.00262694
0.00234358
0.00203239
0.00169363
0.00133616
0.000988705
0.000663144
0.00034372
1.04408e-05
-0.000338501
-0.000699712
-0.00108223
-0.00149925
-0.00196102
-0.00247031
-0.00302907
-0.00362547
-0.00424461
-0.00486098
-0.00543759
-0.0059291
-0.00628426
-0.00646644
-0.00646306
-0.00630688
-0.00605383
-0.00576495
-0.00548414
-0.00523812
-0.00504617
-0.00490751
-0.00481714
-0.00476706
-0.00475035
-0.00475203
-0.00476635
-0.00479962
-0.00484455
-0.00489461
-0.00494306
-0.00499502
-0.00504725
-0.00509309
-0.00514217
-0.00518728
-0.00523553
-0.00528719
-0.00532799
-0.00537778
-0.00543092
-0.00546879
-0.00550996
-0.0055547
-0.00560118
-0.00565317
-0.00569141
-0.0057276
-0.00577565
-0.00581663
-0.00585521
-0.00589289
-0.00593074
-0.0059729
-0.00599942
-0.00602836
-0.0060696
-0.00609056
-0.00611933
-0.00616403
-0.00616831
-0.00616974
-0.00621267
-0.00624178
-0.00623451
-0.0062346
-0.00625634
-0.0062708
-0.00626482
-0.00625879
-0.00626575
-0.00626497
-0.00625246
-0.00624646
-0.00624149
-0.00622835
-0.0062134
-0.00620178
-0.00618727
-0.00616794
-0.00614885
-0.00612815
-0.00610549
-0.00608068
-0.00605325
0.00107625
0.001713
0.00235056
0.00277647
0.00292824
0.00284535
0.00262027
0.00232992
0.00200794
0.00165937
0.00129376
0.000941365
0.000615062
0.000296945
-3.49837e-05
-0.000382079
-0.000740336
-0.00111811
-0.00152869
-0.00198129
-0.00247661
-0.00301678
-0.00359002
-0.00418116
-0.00476729
-0.00531611
-0.00578762
-0.00613608
-0.00632851
-0.00635087
-0.00622755
-0.00600429
-0.00573693
-0.00546955
-0.00523052
-0.0050416
-0.00490437
-0.00481454
-0.00476457
-0.00474757
-0.00474941
-0.00476441
-0.00479758
-0.00484207
-0.00489177
-0.00493953
-0.00499089
-0.00504262
-0.00508822
-0.00513754
-0.00518253
-0.00523096
-0.00528322
-0.00532362
-0.00537269
-0.00542572
-0.00546384
-0.00550565
-0.00555072
-0.00559678
-0.00564864
-0.00568736
-0.00572371
-0.00577146
-0.00581259
-0.00585172
-0.00588924
-0.00592646
-0.00596874
-0.00599588
-0.00602492
-0.00606616
-0.00608716
-0.00611548
-0.00616021
-0.00616542
-0.00616703
-0.00620919
-0.00623829
-0.00623183
-0.00623221
-0.00625364
-0.00626807
-0.00626251
-0.00625669
-0.00626363
-0.00626301
-0.00625074
-0.00624483
-0.00623992
-0.00622696
-0.00621217
-0.00620062
-0.0061862
-0.00616699
-0.00614801
-0.00612747
-0.00610488
-0.00608045
-0.00605304
0.000878884
0.00150608
0.0021615
0.00263487
0.00284867
0.00281493
0.00260841
0.00231579
0.00198496
0.00162672
0.00125146
0.000891369
0.000562845
0.000246507
-8.31094e-05
-0.000427885
-0.000783028
-0.00115516
-0.0015579
-0.00200062
-0.00248142
-0.00300181
-0.0035512
-0.00411483
-0.00467186
-0.00519382
-0.00564554
-0.00598643
-0.0061868
-0.00623234
-0.00614073
-0.00594832
-0.00570461
-0.00545263
-0.00522194
-0.00503652
-0.00490056
-0.00481111
-0.00476115
-0.0047439
-0.00474592
-0.00476179
-0.004795
-0.00483896
-0.00488845
-0.00493558
-0.00498623
-0.00503745
-0.00508283
-0.00513252
-0.00517746
-0.00522588
-0.00527879
-0.00531892
-0.0053672
-0.00542005
-0.00545849
-0.00550102
-0.0055464
-0.00559201
-0.00564374
-0.00568296
-0.00571954
-0.00576697
-0.0058082
-0.0058479
-0.0058853
-0.00592183
-0.00596422
-0.00599204
-0.00602121
-0.00606241
-0.00608343
-0.00611131
-0.00615608
-0.00616227
-0.00616404
-0.00620539
-0.00623448
-0.00622888
-0.00622958
-0.00625065
-0.00626506
-0.00625996
-0.00625437
-0.00626128
-0.00626082
-0.00624884
-0.006243
-0.00623816
-0.0062254
-0.00621077
-0.0061993
-0.00618498
-0.00616592
-0.00614706
-0.00612669
-0.00610419
-0.00608013
-0.00605279
0.000680327
0.00130378
0.00197369
0.00248442
0.00275208
0.00276923
0.00258892
0.00229893
0.00196215
0.0015963
0.00121144
0.00084079
0.000506886
0.000191693
-0.000134786
-0.000476718
-0.000828499
-0.00119405
-0.00158682
-0.00201796
-0.00248369
-0.00298335
-0.00350821
-0.00404532
-0.00457473
-0.00507041
-0.00550238
-0.00583505
-0.00604165
-0.00610802
-0.00604648
-0.00588558
-0.00566755
-0.00543285
-0.00521203
-0.00503077
-0.00489608
-0.00480667
-0.00475651
-0.00473904
-0.00474128
-0.00475826
-0.00479176
-0.00483529
-0.00488469
-0.00493128
-0.0049812
-0.00503185
-0.00507701
-0.00512723
-0.00517209
-0.00522029
-0.00527382
-0.00531387
-0.00536141
-0.00541396
-0.00545267
-0.00549605
-0.00554184
-0.00558691
-0.00563843
-0.00567827
-0.00571511
-0.00576214
-0.00580347
-0.00584378
-0.00588107
-0.00591689
-0.00595939
-0.00598789
-0.0060172
-0.00605837
-0.00607943
-0.00610684
-0.00615163
-0.00615884
-0.00616081
-0.00620131
-0.00623039
-0.0062257
-0.00622672
-0.00624743
-0.00626182
-0.00625721
-0.00625186
-0.00625873
-0.00625845
-0.00624677
-0.00624102
-0.00623625
-0.0062237
-0.00620926
-0.00619788
-0.00618366
-0.00616475
-0.00614601
-0.00612584
-0.00610344
-0.00607973
-0.0060525
0.000480678
0.00110505
0.00178811
0.0023284
0.0026413
0.00270817
0.00256009
0.00227774
0.00193762
0.00156668
0.00117348
0.00079088
0.000448024
0.00013263
-0.000189466
-0.000527435
-0.00087515
-0.00123353
-0.00161491
-0.00203269
-0.00248301
-0.00296215
-0.00346227
-0.00397333
-0.00447614
-0.00494607
-0.00535839
-0.00568245
-0.00589394
-0.00597883
-0.00594523
-0.00581557
-0.00562467
-0.0054092
-0.00520002
-0.00502399
-0.00489102
-0.00480156
-0.00475093
-0.00473333
-0.00473577
-0.00475386
-0.00478791
-0.00483114
-0.00488046
-0.00492648
-0.00497575
-0.00502587
-0.00507066
-0.00512146
-0.00516638
-0.00521431
-0.00526848
-0.00530845
-0.00535525
-0.00540759
-0.00544642
-0.0054906
-0.00553703
-0.00558151
-0.00563267
-0.00567321
-0.00571037
-0.00575698
-0.00579839
-0.00583935
-0.00587653
-0.0059116
-0.00595421
-0.00598343
-0.00601286
-0.00605405
-0.00607519
-0.00610203
-0.00614684
-0.00615517
-0.00615735
-0.00619694
-0.00622601
-0.00622229
-0.00622365
-0.00624398
-0.00625835
-0.00625424
-0.00624916
-0.00625599
-0.00625591
-0.00624454
-0.00623889
-0.0062342
-0.00622188
-0.00620763
-0.00619635
-0.00618223
-0.00616349
-0.00614489
-0.00612491
-0.00610263
-0.00607925
-0.00605218
0.00028114
0.000908717
0.00160493
0.00217004
0.00252041
0.00263252
0.00251963
0.00225004
0.00190897
0.00153536
0.00113662
0.000742641
0.000388437
7.06897e-05
-0.000246447
-0.000579381
-0.000922537
-0.00127381
-0.0016433
-0.00204569
-0.00247932
-0.00293834
-0.003414
-0.00389862
-0.00437534
-0.00482089
-0.0052142
-0.00552934
-0.00574427
-0.00584523
-0.00583726
-0.00573789
-0.00557515
-0.0053811
-0.00518576
-0.0050162
-0.00488559
-0.00479618
-0.00474458
-0.00472672
-0.00472921
-0.00474831
-0.00478315
-0.00482616
-0.00487559
-0.00492106
-0.00496979
-0.0050197
-0.00506384
-0.00511512
-0.00516043
-0.00520807
-0.00526285
-0.00530256
-0.00534846
-0.00540087
-0.00543988
-0.00548463
-0.00553181
-0.00557586
-0.00562655
-0.00566766
-0.00570528
-0.00575153
-0.00579292
-0.00583455
-0.00587169
-0.00590592
-0.00594861
-0.00597864
-0.00600824
-0.00604942
-0.00607062
-0.00609688
-0.0061417
-0.00615123
-0.00615364
-0.00619225
-0.00622132
-0.00621863
-0.00622037
-0.00624027
-0.00625462
-0.00625107
-0.00624627
-0.00625305
-0.00625318
-0.00624214
-0.00623661
-0.00623199
-0.00621991
-0.00620587
-0.0061947
-0.0061807
-0.00616214
-0.00614368
-0.00612391
-0.00610176
-0.00607868
-0.0060518
8.06259e-05
0.000712015
0.00142239
0.00201043
0.00239187
0.00254252
0.00246549
0.00221406
0.00187525
0.00150103
0.0011001
0.000697145
0.000330535
7.27378e-06
-0.000306252
-0.000633213
-0.000970991
-0.00131504
-0.00167227
-0.00205751
-0.00247265
-0.00291158
-0.0033635
-0.00382154
-0.00427239
-0.00469522
-0.00507038
-0.005376
-0.0055929
-0.00570774
-0.00572339
-0.00565305
-0.00551895
-0.00534824
-0.00516859
-0.00500673
-0.00487919
-0.00479021
-0.00473733
-0.00471881
-0.0047214
-0.00474156
-0.0047773
-0.00482025
-0.00487009
-0.00491524
-0.00496335
-0.00501318
-0.00505661
-0.00510812
-0.005154
-0.00520143
-0.00525682
-0.00529625
-0.00534095
-0.00539359
-0.00543309
-0.00547818
-0.005526
-0.00556987
-0.00562008
-0.00566158
-0.00569974
-0.00574572
-0.00578702
-0.00582938
-0.0058666
-0.00589984
-0.00594251
-0.00597355
-0.00600336
-0.00604441
-0.00606567
-0.00609141
-0.00613625
-0.006147
-0.00614965
-0.00618724
-0.00621632
-0.00621471
-0.00621683
-0.0062363
-0.00625063
-0.00624767
-0.00624317
-0.00624989
-0.00625025
-0.00623958
-0.00623415
-0.00622961
-0.0062178
-0.00620398
-0.00619293
-0.00617906
-0.00616068
-0.00614238
-0.00612282
-0.00610081
-0.00607801
-0.00605136
-0.000119106
0.000515187
0.00124006
0.00185004
0.00225796
0.00244039
0.00239774
0.00216909
0.0018363
0.00146254
0.00106191
0.000653134
0.00027463
-5.70825e-05
-0.000369194
-0.000689015
-0.00101976
-0.00135616
-0.00170127
-0.00206872
-0.00246372
-0.00288151
-0.00331028
-0.0037428
-0.00416832
-0.00456932
-0.00492718
-0.00522296
-0.00544069
-0.00556758
-0.00560469
-0.00556159
-0.00545572
-0.00530941
-0.0051473
-0.00499478
-0.00487129
-0.00478352
-0.00472953
-0.00471006
-0.00471272
-0.00473385
-0.0047705
-0.0048134
-0.00486373
-0.00490884
-0.00495616
-0.00500586
-0.00504884
-0.00510057
-0.00514706
-0.00519434
-0.0052504
-0.0052897
-0.00533287
-0.00538548
-0.00542585
-0.00547141
-0.00551969
-0.0055634
-0.00561323
-0.00565508
-0.0056937
-0.00573951
-0.00578078
-0.00582383
-0.00586114
-0.00589329
-0.00593588
-0.00596808
-0.00599821
-0.00603903
-0.00606033
-0.00608557
-0.00613045
-0.00614244
-0.00614533
-0.00618189
-0.00621098
-0.00621051
-0.00621304
-0.00623205
-0.00624637
-0.00624402
-0.00623985
-0.0062465
-0.00624712
-0.00623683
-0.00623153
-0.00622707
-0.00621554
-0.00620196
-0.00619103
-0.0061773
-0.00615911
-0.00614099
-0.00612165
-0.00609979
-0.00607725
-0.00605085
-0.000315943
0.000319515
0.0010577
0.00168817
0.00211975
0.00232901
0.00231757
0.00211438
0.00179107
0.00141851
0.00101967
0.000608818
0.000220835
-0.000120597
-0.000433365
-0.000745982
-0.00106821
-0.00139622
-0.0017297
-0.00207949
-0.00245295
-0.00284812
-0.00325418
-0.00366323
-0.00406439
-0.00444331
-0.00478422
-0.00507056
-0.00528833
-0.00542555
-0.00548163
-0.00546364
-0.00538525
-0.00526379
-0.00512116
-0.00497991
-0.00486152
-0.00477585
-0.00472123
-0.00470084
-0.00470308
-0.00472482
-0.0047626
-0.00480526
-0.00485606
-0.0049015
-0.00494809
-0.0049979
-0.00504069
-0.0050927
-0.0051398
-0.00518658
-0.00524332
-0.00528283
-0.00532431
-0.00537654
-0.00541788
-0.00546435
-0.00551313
-0.00555636
-0.00560582
-0.00564818
-0.0056872
-0.00573283
-0.0057741
-0.00581781
-0.00585526
-0.00588639
-0.00592884
-0.00596216
-0.0059927
-0.00603337
-0.00605461
-0.00607928
-0.00612426
-0.0061376
-0.00614071
-0.00617616
-0.0062053
-0.00620602
-0.00620897
-0.0062275
-0.00624181
-0.00624013
-0.00623629
-0.00624288
-0.00624375
-0.00623388
-0.00622871
-0.00622435
-0.00621311
-0.0061998
-0.006189
-0.00617542
-0.00615743
-0.00613949
-0.00612037
-0.00609867
-0.00607637
-0.00605025
-0.000510757
0.000125132
0.000874524
0.0015235
0.00197715
0.00221056
0.00222668
0.00204903
0.00173827
0.00136829
0.00097253
0.00056357
0.000169526
-0.000181552
-0.000497199
-0.00080391
-0.0011167
-0.0014348
-0.00175716
-0.00209035
-0.0024415
-0.00281291
-0.00319598
-0.00358271
-0.00396071
-0.00431739
-0.00464126
-0.00491877
-0.00513642
-0.00528231
-0.00535512
-0.00535991
-0.00530781
-0.00521123
-0.00508923
-0.00496133
-0.00484935
-0.00476675
-0.00471223
-0.00469113
-0.00469244
-0.00471423
-0.00475356
-0.00479611
-0.00484712
-0.0048931
-0.00493916
-0.00498939
-0.00503188
-0.00508402
-0.00513211
-0.00517819
-0.00523544
-0.00527563
-0.00531543
-0.00536694
-0.00540914
-0.00545668
-0.00550623
-0.0055489
-0.00559773
-0.00564072
-0.00568035
-0.00572572
-0.00576683
-0.00581131
-0.00584911
-0.00587918
-0.00592128
-0.00595568
-0.00598676
-0.00602741
-0.00604856
-0.00607251
-0.00611764
-0.00613248
-0.00613576
-0.00617001
-0.00619923
-0.00620125
-0.00620463
-0.00622264
-0.00623694
-0.00623597
-0.00623248
-0.006239
-0.00624015
-0.00623074
-0.00622568
-0.00622143
-0.00621051
-0.00619748
-0.00618681
-0.0061734
-0.00615562
-0.00613788
-0.00611899
-0.00609746
-0.00607539
-0.00604956
-0.000703288
-6.65342e-05
0.000691662
0.00135659
0.00183103
0.00208665
0.00212661
0.0019727
0.00167707
0.00131213
0.000920078
0.000515395
0.000118767
-0.000240437
-0.000560297
-0.000862262
-0.00116527
-0.00147224
-0.0017832
-0.0021011
-0.00242974
-0.00277631
-0.00313561
-0.00350034
-0.00385684
-0.00419262
-0.0044995
-0.00476807
-0.00498587
-0.00513915
-0.00522635
-0.00525132
-0.0052237
-0.0051518
-0.005051
-0.00493828
-0.0048342
-0.00475563
-0.00470191
-0.00468048
-0.00468149
-0.00470259
-0.0047434
-0.00478633
-0.00483678
-0.00488326
-0.00492897
-0.00497981
-0.00502242
-0.00507448
-0.00512417
-0.00516978
-0.00522673
-0.00526775
-0.0053061
-0.00535677
-0.0053998
-0.00544806
-0.00549863
-0.00554128
-0.0055892
-0.00563253
-0.00567311
-0.00571833
-0.00575894
-0.00580424
-0.00584267
-0.00587149
-0.00591306
-0.00594875
-0.00598047
-0.00602107
-0.00604215
-0.00606527
-0.00611047
-0.00612699
-0.00613053
-0.00616345
-0.00619275
-0.00619617
-0.00619999
-0.00621742
-0.00623172
-0.00623153
-0.00622841
-0.00623486
-0.00623631
-0.00622737
-0.00622245
-0.00621831
-0.00620771
-0.00619499
-0.00618447
-0.00617124
-0.00615368
-0.00613615
-0.0061175
-0.00609614
-0.00607428
-0.00604875
-0.000894645
-0.000256286
0.000509242
0.00118789
0.00168131
0.00195754
0.00201863
0.00188652
0.00160756
0.00125004
0.000861977
0.000462726
6.74431e-05
-0.000296909
-0.000621177
-0.000919413
-0.00121308
-0.00150872
-0.00180684
-0.00211009
-0.0024179
-0.00273915
-0.00307398
-0.00341686
-0.00375332
-0.00407031
-0.00436058
-0.0046189
-0.00483642
-0.00499657