/*--------------------------------*- C++ -*----------------------------------*\
| =========                 |                                                 |
| \\      /  F ield         | OpenFOAM: The Open Source CFD Toolbox           |
|  \\    /   O peration     | Version:  v1906                                 |
|   \\  /    A nd           | Web:      www.OpenFOAM.com                      |
|    \\/     M anipulation  |                                                 |
\*---------------------------------------------------------------------------*/
FoamFile
{
    version     2.0;
    format      ascii;
    class       surfaceScalarField;
    location    "0.9";
    object      phi;
}
// * * * * * * * * * * * * * * * * * * * * * * * * * * * * * * * * * * * * * //

dimensions      [0 3 -1 0 0 0 0];
oriented        oriented;


internalField   nonuniform List<scalar> 
9440
(
3.88108e-06
-4.81395e-09
3.87691e-06
-2.64607e-08
3.8801e-06
1.14611e-08
3.87682e-06
-1.86242e-08
3.87934e-06
1.61028e-08
3.87759e-06
-1.83157e-08
3.879e-06
-1.65043e-09
3.87798e-06
-3.13437e-08
3.87918e-06
-5.23551e-09
3.87889e-06
-3.25757e-08
3.88026e-06
-4.92938e-09
3.88089e-06
-1.9712e-08
3.88222e-06
3.85645e-09
3.88232e-06
-1.23116e-08
3.88409e-06
9.51128e-09
3.88474e-06
-6.05141e-11
3.88462e-06
1.08527e-08
3.88154e-06
4.88025e-09
3.86792e-06
2.51768e-08
3.72607e-08
3.84486e-06
4.18301e-06
-1.95931e-09
4.18614e-06
-2.96001e-08
4.18425e-06
1.33509e-08
4.18629e-06
-2.06626e-08
4.18499e-06
1.74075e-08
4.18634e-06
-1.96684e-08
4.18592e-06
-1.22827e-09
4.18527e-06
-3.06968e-08
4.18626e-06
-6.2233e-09
4.18391e-06
-3.02303e-08
4.18604e-06
-7.05767e-09
4.18417e-06
-1.78415e-08
4.18714e-06
8.86816e-10
4.18615e-06
-1.13216e-08
4.18925e-06
6.41513e-09
4.18664e-06
2.54379e-09
4.18569e-06
1.18046e-08
4.1763e-06
1.42756e-08
4.16811e-06
3.33628e-08
4.40613e-08
4.16131e-06
4.51754e-06
5.67458e-10
4.51947e-06
-3.15303e-08
4.51889e-06
1.39215e-08
4.51918e-06
-2.09467e-08
4.52052e-06
1.60616e-08
4.51906e-06
-1.82064e-08
4.52226e-06
-4.42173e-09
4.51808e-06
-2.65204e-08
4.52265e-06
-1.07963e-08
4.51717e-06
-2.47432e-08
4.52246e-06
-1.23499e-08
4.51741e-06
-1.27913e-08
4.52372e-06
-5.42046e-09
4.51956e-06
-7.16702e-09
4.5252e-06
7.79533e-10
4.5211e-06
6.63838e-09
4.52238e-06
1.05283e-08
4.51102e-06
2.56291e-08
4.5038e-06
4.05915e-08
5.07216e-08
4.49714e-06
4.88034e-06
1.17953e-09
4.87974e-06
-3.09393e-08
4.88186e-06
1.18028e-08
4.87966e-06
-1.87442e-08
4.88375e-06
1.19755e-08
4.87991e-06
-1.43695e-08
4.88513e-06
-9.63758e-09
4.87978e-06
-2.11778e-08
4.88456e-06
-1.55754e-08
4.88042e-06
-2.05964e-08
4.88425e-06
-1.61859e-08
4.88406e-06
-1.26e-08
4.88669e-06
-8.05163e-09
4.88626e-06
-6.73328e-09
4.88705e-06
-1.42139e-11
4.88404e-06
9.65323e-09
4.87655e-06
1.802e-08
4.86789e-06
3.42812e-08
4.8631e-06
4.53806e-08
5.44859e-08
4.85934e-06
5.27074e-06
1.08331e-09
5.26886e-06
-2.90604e-08
5.27268e-06
7.99e-09
5.26907e-06
-1.51394e-08
5.27467e-06
6.37541e-09
5.26988e-06
-9.57557e-09
5.27538e-06
-1.51408e-08
5.27066e-06
-1.646e-08
5.27447e-06
-1.93826e-08
5.27374e-06
-1.98613e-08
5.27539e-06
-1.78359e-08
5.27653e-06
-1.37465e-08
5.27821e-06
-9.73133e-09
5.27762e-06
-6.14182e-09
5.27657e-06
1.03199e-09
5.27059e-06
1.56392e-08
5.26031e-06
2.82972e-08
5.2549e-06
3.96936e-08
5.25157e-06
4.87119e-08
5.65572e-08
5.2495e-06
5.6918e-06
7.4068e-10
5.68896e-06
-2.62162e-08
5.69399e-06
2.95333e-09
5.68988e-06
-1.10216e-08
5.69539e-06
8.66122e-10
5.69184e-06
-6.03354e-09
5.69491e-06
-1.82117e-08
5.6945e-06
-1.60448e-08
5.69493e-06
-1.9811e-08
5.69687e-06
-2.18027e-08
5.69788e-06
-1.88488e-08
5.69882e-06
-1.46828e-08
5.69986e-06
-1.07701e-08
5.69793e-06
-4.21779e-09
5.69202e-06
6.94604e-09
5.68238e-06
2.52742e-08
5.67668e-06
3.40053e-08
5.6736e-06
4.27723e-08
5.67143e-06
5.0875e-08
5.78385e-08
5.67015e-06
6.14633e-06
2.81485e-10
6.14283e-06
-2.27173e-08
6.14833e-06
-2.54648e-09
6.1448e-06
-7.49382e-09
6.14866e-06
-2.99279e-09
6.14811e-06
-5.48669e-09
6.14759e-06
-1.76853e-08
6.15059e-06
-1.90484e-08
6.15101e-06
-2.02316e-08
6.15226e-06
-2.30464e-08
6.15364e-06
-2.02297e-08
6.15421e-06
-1.52552e-08
6.15274e-06
-9.30332e-09
6.1465e-06
2.02841e-09
6.13703e-06
1.64172e-08
6.13217e-06
3.01326e-08
6.12842e-06
3.77509e-08
6.12646e-06
4.47373e-08
6.1249e-06
5.24313e-08
5.87136e-08
6.12402e-06
6.63708e-06
-2.37262e-10
6.63333e-06
-1.89655e-08
6.638e-06
-7.21507e-09
6.63643e-06
-5.93005e-09
6.63766e-06
-4.21474e-09
6.64052e-06
-8.3465e-09
6.63945e-06
-1.6622e-08
6.64124e-06
-2.08411e-08
6.64386e-06
-2.28493e-08
6.64467e-06
-2.38582e-08
6.64492e-06
-2.04715e-08
6.64353e-06
-1.38699e-08
6.63808e-06
-3.85214e-09
6.629e-06
1.11077e-08
6.62303e-06
2.23837e-08
6.61997e-06
3.31977e-08
6.61749e-06
4.02268e-08
6.61569e-06
4.65416e-08
6.61452e-06
5.36043e-08
5.92713e-08
6.61396e-06
7.16691e-06
-7.19959e-10
7.16351e-06
-1.55584e-08
7.1653e-06
-9.00652e-09
7.16758e-06
-8.21754e-09
7.16724e-06
-3.87183e-09
7.17026e-06
-1.13655e-08
7.17204e-06
-1.8404e-08
7.17233e-06
-2.11311e-08
7.17397e-06
-2.44876e-08
7.17573e-06
-2.56164e-08
7.17436e-06
-1.90991e-08
7.17015e-06
-9.66258e-09
7.16151e-06
4.78294e-09
7.15419e-06
1.84357e-08
7.14998e-06
2.65883e-08
7.14792e-06
3.526e-08
7.14589e-06
4.22535e-08
7.1441e-06
4.83339e-08
7.1433e-06
5.4408e-08
5.96095e-08
7.14296e-06
7.73904e-06
-1.15277e-09
7.73624e-06
-1.27646e-08
7.73606e-06
-8.8195e-09
7.74002e-06
-1.21827e-08
7.74128e-06
-5.13251e-09
7.74149e-06
-1.15757e-08
7.74535e-06
-2.22667e-08
7.74651e-06
-2.22893e-08
7.74643e-06
-2.44093e-08
7.74633e-06
-2.55077e-08
7.74223e-06
-1.49999e-08
7.73355e-06
-9.82485e-10
7.72698e-06
1.13468e-08
7.72327e-06
2.21483e-08
7.7203e-06
2.95549e-08
7.71843e-06
3.71342e-08
7.71658e-06
4.41003e-08
7.71502e-06
4.98988e-08
7.7144e-06
5.50282e-08
5.97731e-08
7.71423e-06
8.35685e-06
-1.53887e-09
8.35504e-06
-1.09611e-08
8.35379e-06
-7.56417e-09
8.35657e-06
-1.49646e-08
8.36091e-06
-9.47428e-09
8.36062e-06
-1.12892e-08
8.36251e-06
-2.41492e-08
8.36529e-06
-2.50674e-08
8.36402e-06
-2.31471e-08
8.35928e-06
-2.07622e-08
8.35301e-06
-8.73355e-09
8.34638e-06
5.64423e-09
8.34197e-06
1.57597e-08
8.33899e-06
2.51307e-08
8.33647e-06
3.2077e-08
8.33461e-06
3.89948e-08
8.33304e-06
4.56694e-08
8.33175e-06
5.11886e-08
8.33116e-06
5.56177e-08
5.9783e-08
8.33115e-06
9.02408e-06
-1.96873e-09
9.02334e-06
-1.02247e-08
9.02236e-06
-6.58671e-09
9.02186e-06
-1.44586e-08
9.02845e-06
-1.60622e-08
9.03071e-06
-1.35591e-08
9.0295e-06
-2.29376e-08
9.03073e-06
-2.62955e-08
9.02919e-06
-2.16031e-08
9.02174e-06
-1.33155e-08
9.0143e-06
-1.29291e-09
9.00997e-06
9.97239e-09
9.00705e-06
1.86844e-08
9.00453e-06
2.76462e-08
9.00204e-06
3.45701e-08
9.00022e-06
4.08084e-08
8.99893e-06
4.69659e-08
8.99793e-06
5.21891e-08
8.99737e-06
5.6173e-08
5.9681e-08
8.99747e-06
9.74459e-06
-2.45979e-09
9.74421e-06
-9.84256e-09
9.74471e-06
-7.08492e-09
9.74225e-06
-1.19982e-08
9.747e-06
-2.08107e-08
9.75229e-06
-1.8847e-08
9.75146e-06
-2.21102e-08
9.74757e-06
-2.24031e-08
9.74433e-06
-1.83647e-08
9.73895e-06
-7.93922e-09
9.73245e-06
5.20676e-09
9.72793e-06
1.44913e-08
9.72543e-06
2.11874e-08
9.72335e-06
2.97269e-08
9.72107e-06
3.6854e-08
9.71924e-06
4.2629e-08
9.71816e-06
4.80533e-08
9.71745e-06
5.29001e-08
9.71699e-06
5.66287e-08
5.95001e-08
9.71717e-06
1.05226e-05
-2.98556e-09
1.05219e-05
-9.1062e-09
1.05241e-05
-9.34921e-09
1.05224e-05
-1.02945e-08
1.05224e-05
-2.0769e-08
1.05282e-05
-2.46109e-08
1.05295e-05
-2.34961e-08
1.05232e-05
-1.60763e-08
1.05159e-05
-1.1013e-08
1.05117e-05
-3.82221e-09
1.05086e-05
8.36009e-09
1.05046e-05
1.84938e-08
1.05016e-05
2.41711e-08
1.04997e-05
3.16646e-08
1.04977e-05
3.87749e-08
1.0496e-05
4.43624e-08
1.04951e-05
4.8986e-08
1.04945e-05
5.346e-08
1.04943e-05
5.68873e-08
5.92276e-08
1.04945e-05
1.13627e-05
-3.48296e-09
1.13617e-05
-8.15763e-09
1.13645e-05
-1.21495e-08
1.13657e-05
-1.14709e-08
1.13627e-05
-1.77607e-08
1.13631e-05
-2.50464e-08
1.1366e-05
-2.6397e-08
1.13631e-05
-1.32004e-08
1.13544e-05
-2.26969e-09
1.13483e-05
2.32142e-09
1.13459e-05
1.07264e-08
1.13434e-05
2.10251e-08
1.13404e-05
2.71789e-08
1.13382e-05
3.37725e-08
1.13366e-05
4.04035e-08
1.13351e-05
4.5882e-08
1.13342e-05
4.98981e-08
1.13338e-05
5.38273e-08
1.13338e-05
5.69086e-08
5.88122e-08
1.13342e-05
1.22696e-05
-3.73684e-09
1.22697e-05
-8.24439e-09
1.22704e-05
-1.29125e-08
1.22744e-05
-1.54655e-08
1.22716e-05
-1.49454e-08
1.22667e-05
-2.01311e-08
1.22653e-05
-2.49433e-08
1.22656e-05
-1.3581e-08
1.22614e-05
2.00816e-09
1.22547e-05
8.96465e-09
1.22508e-05
1.46633e-08
1.22487e-05
2.30801e-08
1.22463e-05
2.96142e-08
1.22442e-05
3.58854e-08
1.22427e-05
4.18798e-08
1.22414e-05
4.71483e-08
1.22406e-05
5.07347e-08
1.22404e-05
5.40441e-08
1.22406e-05
5.67285e-08
5.82483e-08
1.22411e-05
1.3249e-05
-3.82076e-09
1.32506e-05
-9.8616e-09
1.32493e-05
-1.15946e-08
1.32527e-05
-1.88157e-08
1.32531e-05
-1.53497e-08
1.32465e-05
-1.35971e-08
1.324e-05
-1.83629e-08
1.32382e-05
-1.18498e-08
1.32377e-05
2.49359e-09
1.32338e-05
1.29374e-08
1.32295e-05
1.88921e-08
1.32266e-05
2.60175e-08
1.32245e-05
3.16862e-08
1.32226e-05
3.77692e-08
1.32213e-05
4.31947e-08
1.32203e-05
4.81291e-08
1.32196e-05
5.14393e-08
1.32196e-05
5.41334e-08
1.32199e-05
5.63765e-08
5.7514e-08
1.32206e-05
1.43069e-05
-3.94879e-09
1.43088e-05
-1.17896e-08
1.43084e-05
-1.11741e-08
1.43078e-05
-1.82934e-08
1.43105e-05
-1.80503e-08
1.43061e-05
-9.12869e-09
1.42974e-05
-9.69503e-09
1.42921e-05
-6.54154e-09
1.42909e-05
3.69008e-09
1.42897e-05
1.41411e-08
1.42866e-05
2.19947e-08
1.42836e-05
2.90089e-08
1.42812e-05
3.41169e-08
1.42795e-05
3.94401e-08
1.42784e-05
4.43341e-08
1.42777e-05
4.88196e-08
1.42772e-05
5.19569e-08
1.42772e-05
5.41123e-08
1.42777e-05
5.58878e-08
5.66354e-08
1.42786e-05
1.54492e-05
-4.18939e-09
1.54505e-05
-1.30909e-08
1.5452e-05
-1.2605e-08
1.54489e-05
-1.52054e-08
1.54488e-05
-1.79383e-08
1.5448e-05
-8.32347e-09
1.54409e-05
-2.62359e-09
1.54337e-05
6.59729e-10
1.54303e-05
7.03506e-09
1.5429e-05
1.5522e-08
1.54276e-05
2.34034e-08
1.54252e-05
3.13399e-08
1.54229e-05
3.64708e-08
1.54211e-05
4.1215e-08
1.54201e-05
4.53604e-08
1.54197e-05
4.92358e-08
1.54194e-05
5.22243e-08
1.54196e-05
5.39436e-08
1.54202e-05
5.52597e-08
5.56275e-08
1.54212e-05
1.66827e-05
-4.4729e-09
1.66833e-05
-1.36515e-08
1.66851e-05
-1.44162e-08
1.66826e-05
-1.2724e-08
1.66788e-05
-1.41385e-08
1.66774e-05
-6.89473e-09
1.6674e-05
8.11552e-10
1.6668e-05
6.6334e-09
1.66631e-05
1.19395e-08
1.66605e-05
1.81498e-08
1.66591e-05
2.47696e-08
1.66578e-05
3.2601e-08
1.6656e-05
3.82918e-08
1.66544e-05
4.28506e-08
1.66534e-05
4.63879e-08
1.66531e-05
4.9488e-08
1.66531e-05
5.22051e-08
1.66535e-05
5.35925e-08
1.66542e-05
5.44893e-08
5.45208e-08
1.66553e-05
1.80146e-05
-4.65331e-09
1.80145e-05
-1.35822e-08
1.80154e-05
-1.52741e-08
1.80142e-05
-1.15423e-08
1.80094e-05
-9.38436e-09
1.8006e-05
-3.45254e-09
1.80035e-05
3.31093e-09
1.79998e-05
1.028e-08
1.79953e-05
1.6435e-08
1.79917e-05
2.17805e-08
1.79898e-05
2.67134e-08
1.79887e-05
3.36805e-08
1.79876e-05
3.93471e-08
1.79865e-05
4.40167e-08
1.79855e-05
4.73292e-08
1.79854e-05
4.96524e-08
1.79857e-05
5.19205e-08
1.79862e-05
5.30428e-08
1.79871e-05
5.35514e-08
5.33175e-08
1.79883e-05
1.94527e-05
-4.67128e-09
1.94522e-05
-1.3106e-08
1.94516e-05
-1.46694e-08
1.94504e-05
-1.02832e-08
1.94469e-05
-5.92125e-09
1.94427e-05
7.41596e-10
1.94395e-05
6.49777e-09
1.94369e-05
1.29306e-08
1.94337e-05
1.95991e-08
1.94303e-05
2.52172e-08
1.94276e-05
2.93546e-08
1.94264e-05
3.48722e-08
1.94256e-05
4.01715e-08
1.94251e-05
4.45659e-08
1.94245e-05
4.79099e-08
1.94244e-05
4.97257e-08
1.94249e-05
5.141e-08
1.94257e-05
5.22905e-08
1.94268e-05
5.24579e-08
5.20052e-08
1.94281e-05
2.10057e-05
-4.52446e-09
2.10047e-05
-1.21191e-08
2.10031e-05
-1.30898e-08
2.10012e-05
-8.36036e-09
2.09984e-05
-3.17439e-09
2.0995e-05
4.17322e-09
2.09913e-05
1.01434e-08
2.09887e-05
1.55993e-08
2.09864e-05
2.18814e-08
2.09837e-05
2.79436e-08
2.09811e-05
3.18781e-08
2.09796e-05
3.64168e-08
2.09789e-05
4.08379e-08
2.09786e-05
4.48606e-08
2.09786e-05
4.79195e-08
2.09787e-05
4.96588e-08
2.09794e-05
5.07008e-08
2.09804e-05
5.13084e-08
2.09816e-05
5.12179e-08
5.05478e-08
2.09831e-05
2.26826e-05
-4.19411e-09
2.2681e-05
-1.04809e-08
2.26789e-05
-1.10189e-08
2.26765e-05
-5.98344e-09
2.26737e-05
-3.32162e-10
2.2671e-05
6.79851e-09
2.26679e-05
1.32468e-08
2.26651e-05
1.84586e-08
2.2663e-05
2.39617e-08
2.2661e-05
2.99045e-08
2.26589e-05
3.40049e-08
2.26575e-05
3.78605e-08
2.26567e-05
4.15566e-08
2.26567e-05
4.49055e-08
2.2657e-05
4.75959e-08
2.26575e-05
4.92146e-08
2.26583e-05
4.98307e-08
2.26596e-05
5.00945e-08
2.2661e-05
4.98115e-08
4.89338e-08
2.26626e-05
2.44934e-05
-3.67309e-09
2.44913e-05
-8.32858e-09
2.44887e-05
-8.45749e-09
2.44862e-05
-3.48468e-09
2.44834e-05
2.52883e-09
2.44809e-05
9.27001e-09
2.44785e-05
1.56094e-08
2.44759e-05
2.10406e-08
2.44739e-05
2.6013e-08
2.44723e-05
3.14551e-08
2.44708e-05
3.55305e-08
2.44696e-05
3.90331e-08
2.44691e-05
4.20846e-08
2.44692e-05
4.48251e-08
2.44698e-05
4.70287e-08
2.44706e-05
4.83402e-08
2.44717e-05
4.88056e-08
2.44731e-05
4.86941e-08
2.44746e-05
4.82251e-08
4.71748e-08
2.44764e-05
2.64488e-05
-2.9577e-09
2.64465e-05
-5.95393e-09
2.64434e-05
-5.40526e-09
2.64408e-05
-8.14844e-10
2.6438e-05
5.23108e-09
2.64356e-05
1.1674e-08
2.64336e-05
1.76374e-08
2.64316e-05
2.301e-08
2.64299e-05
2.78086e-08
2.64286e-05
3.27536e-08
2.64275e-05
3.65495e-08
2.64267e-05
3.98196e-08
2.64265e-05
4.23412e-08
2.64268e-05
4.44921e-08
2.64275e-05
4.63048e-08
2.64288e-05
4.71285e-08
2.643e-05
4.75257e-08
2.64316e-05
4.71293e-08
2.64334e-05
4.64457e-08
4.52831e-08
2.64353e-05
2.85605e-05
-2.09446e-09
2.8558e-05
-3.52298e-09
2.85547e-05
-2.0806e-09
2.85517e-05
2.15293e-09
2.85492e-05
7.72248e-09
2.8547e-05
1.39089e-08
2.85451e-05
1.95071e-08
2.85436e-05
2.45565e-08
2.85423e-05
2.91167e-08
2.85413e-05
3.37528e-08
2.85406e-05
3.71871e-08
2.85404e-05
4.01068e-08
2.85404e-05
4.22811e-08
2.85411e-05
4.38448e-08
2.85421e-05
4.53144e-08
2.85434e-05
4.5765e-08
2.8545e-05
4.59132e-08
2.85468e-05
4.53984e-08
2.85487e-05
4.44779e-08
4.32694e-08
2.85507e-05
3.08407e-05
-1.14579e-09
3.08382e-05
-1.04173e-09
3.08349e-05
1.25933e-09
3.08318e-05
5.26746e-09
3.08293e-05
1.01923e-08
3.08273e-05
1.58948e-08
3.08257e-05
2.11623e-08
3.08244e-05
2.58525e-08
3.08235e-05
2.99607e-08
3.0823e-05
3.42912e-08
3.08227e-05
3.74664e-08
3.08229e-05
3.99111e-08
3.08234e-05
4.18109e-08
3.08243e-05
4.29548e-08
3.08256e-05
4.39898e-08
3.08271e-05
4.42289e-08
3.0829e-05
4.40449e-08
3.0831e-05
4.34545e-08
3.08331e-05
4.23435e-08
4.10958e-08
3.08353e-05
3.33031e-05
-1.87646e-10
3.33006e-05
1.50006e-09
3.32974e-05
4.4707e-09
3.32943e-05
8.38639e-09
3.32918e-05
1.26561e-08
3.32901e-05
1.76515e-08
3.32887e-05
2.25112e-08
3.32877e-05
2.68852e-08
3.32871e-05
3.05019e-08
3.32871e-05
3.43423e-08
3.32873e-05
3.72922e-08
3.32878e-05
3.93293e-08
3.32888e-05
4.08773e-08
3.32899e-05
4.17873e-08
3.32916e-05
4.23636e-08
3.32934e-05
4.24173e-08
3.32954e-05
4.1984e-08
3.32976e-05
4.12606e-08
3.32999e-05
4.00718e-08
3.87343e-08
3.33023e-05
3.59622e-05
7.61875e-10
3.59597e-05
3.93916e-09
3.59567e-05
7.51714e-09
3.59537e-05
1.13796e-08
3.59513e-05
1.50636e-08
3.59496e-05
1.93073e-08
3.59486e-05
2.35398e-08
3.59479e-05
2.75601e-08
3.59477e-05
3.07614e-08
3.5948e-05
3.39773e-08
3.59487e-05
3.6642e-08
3.59497e-05
3.83241e-08
3.5951e-05
3.95561e-08
3.59526e-05
4.0238e-08
3.59544e-05
4.04898e-08
3.59566e-05
4.03051e-08
3.59588e-05
3.97245e-08
3.59612e-05
3.88484e-08
3.59637e-05
3.76338e-08
3.62243e-08
3.59662e-05
3.88336e-05
1.66261e-09
3.88313e-05
6.20836e-09
3.88284e-05
1.03569e-08
3.88257e-05
1.414e-08
3.88234e-05
1.73205e-08
3.88219e-05
2.08276e-08
3.88211e-05
2.4374e-08
3.88208e-05
2.78226e-08
3.88209e-05
3.06642e-08
3.88216e-05
3.32956e-08
3.88227e-05
3.55151e-08
3.88241e-05
3.69282e-08
3.88258e-05
3.78861e-08
3.88277e-05
3.82724e-08
3.88299e-05
3.83233e-08
3.88323e-05
3.79383e-08
3.88348e-05
3.72302e-08
3.88374e-05
3.62653e-08
3.884e-05
3.50058e-08
3.35922e-08
3.88426e-05
4.19342e-05
2.49125e-09
4.19322e-05
8.23724e-09
4.19296e-05
1.29164e-08
4.19272e-05
1.65855e-08
4.19251e-05
1.93599e-08
4.19238e-05
2.21475e-08
4.19232e-05
2.49852e-08
4.19232e-05
2.78171e-08
4.19237e-05
3.01693e-08
4.19247e-05
3.22966e-08
4.19262e-05
3.40469e-08
4.1928e-05
3.51245e-08
4.193e-05
3.58711e-08
4.19323e-05
3.59511e-08
4.19348e-05
3.57803e-08
4.19375e-05
3.53222e-08
4.19402e-05
3.4499e-08
4.19429e-05
3.3526e-08
4.19457e-05
3.22315e-08
3.07873e-08
4.19485e-05
4.52824e-05
3.21522e-09
4.52807e-05
9.95183e-09
4.52785e-05
1.51003e-08
4.52765e-05
1.86371e-08
4.52748e-05
2.10824e-08
4.52737e-05
2.32355e-08
4.52733e-05
2.5392e-08
4.52735e-05
2.75865e-08
4.52743e-05
2.93532e-08
4.52756e-05
3.09988e-08
4.52773e-05
3.23359e-08
4.52795e-05
3.29605e-08
4.52819e-05
3.34924e-08
4.52845e-05
3.33538e-08
4.52873e-05
3.29095e-08
4.52902e-05
3.24892e-08
4.52932e-05
3.15157e-08
4.52962e-05
3.04911e-08
4.52992e-05
2.92146e-08
2.79381e-08
4.53021e-05
4.8898e-05
3.79916e-09
4.88967e-05
1.12866e-08
4.8895e-05
1.68018e-08
4.88934e-05
2.02063e-08
4.88921e-05
2.23692e-08
4.88914e-05
2.40102e-08
4.88912e-05
2.55418e-08
4.88916e-05
2.72193e-08
4.88925e-05
2.83823e-08
4.88941e-05
2.94345e-08
4.8896e-05
3.04495e-08
4.88983e-05
3.06092e-08
4.8901e-05
3.08031e-08
4.89038e-05
3.05749e-08
4.89069e-05
2.98374e-08
4.89101e-05
2.93229e-08
4.89133e-05
2.82985e-08
4.89165e-05
2.72411e-08
4.89197e-05
2.6011e-08
2.47629e-08
4.89229e-05
5.28023e-05
4.18748e-09
5.28015e-05
1.21043e-08
5.28004e-05
1.78995e-08
5.27993e-05
2.12651e-08
5.27986e-05
2.31144e-08
5.27982e-05
2.43826e-08
5.27985e-05
2.53159e-08
5.27992e-05
2.64776e-08
5.28001e-05
2.75024e-08
5.28016e-05
2.78813e-08
5.28036e-05
2.84304e-08
5.28059e-05
2.83196e-08
5.28088e-05
2.79883e-08
5.28116e-05
2.77152e-08
5.28147e-05
2.67849e-08
5.28181e-05
2.58785e-08
5.28217e-05
2.47485e-08
5.28252e-05
2.37251e-08
5.28286e-05
2.26022e-08
2.13639e-08
5.2832e-05
5.70184e-05
4.30606e-09
5.70182e-05
1.22819e-08
5.7018e-05
1.80977e-08
5.70176e-05
2.1666e-08
5.70174e-05
2.33801e-08
5.70174e-05
2.42964e-08
5.7018e-05
2.47883e-08
5.70191e-05
2.53303e-08
5.70206e-05
2.59974e-08
5.70223e-05
2.61887e-08
5.70242e-05
2.65418e-08
5.7026e-05
2.64905e-08
5.70284e-05
2.56294e-08
5.7031e-05
2.51038e-08
5.70338e-05
2.40155e-08
5.70371e-05
2.25697e-08
5.70405e-05
2.1361e-08
5.70442e-05
2.00307e-08
5.7048e-05
1.88101e-08
1.7475e-08
5.70518e-05
6.15711e-05
4.13137e-09
6.15718e-05
1.16025e-08
6.15727e-05
1.7142e-08
6.15737e-05
2.07309e-08
6.15743e-05
2.27962e-08
6.15746e-05
2.39484e-08
6.15749e-05
2.45169e-08
6.15761e-05
2.4129e-08
6.15776e-05
2.44792e-08
6.15796e-05
2.4142e-08
6.15825e-05
2.36778e-08
6.15854e-05
2.36408e-08
6.1588e-05
2.30215e-08
6.15909e-05
2.21996e-08
6.15937e-05
2.11896e-08
6.15965e-05
1.97334e-08
6.15995e-05
1.84225e-08
6.16026e-05
1.68684e-08
6.16059e-05
1.55827e-08
1.42102e-08
6.16091e-05
6.64873e-05
3.67443e-09
6.64891e-05
9.75505e-09
6.64913e-05
1.49163e-08
6.6494e-05
1.80334e-08
6.64965e-05
2.02855e-08
6.6499e-05
2.14651e-08
6.65008e-05
2.27174e-08
6.65018e-05
2.31791e-08
6.65024e-05
2.38979e-08
6.65024e-05
2.4121e-08
6.65026e-05
2.35008e-08
6.65031e-05
2.31223e-08
6.65039e-05
2.22179e-08
6.65055e-05
2.05372e-08
6.65076e-05
1.91459e-08
6.65101e-05
1.71874e-08
6.65132e-05
1.53752e-08
6.65166e-05
1.33994e-08
6.65203e-05
1.19099e-08
9.95039e-09
6.65246e-05
7.17959e-05
2.92674e-09
7.17984e-05
7.22905e-09
7.18019e-05
1.14601e-08
7.18061e-05
1.38147e-08
7.18103e-05
1.60698e-08
7.18146e-05
1.71904e-08
7.18186e-05
1.87014e-08
7.18223e-05
1.94845e-08
7.18257e-05
2.04748e-08
7.18284e-05
2.14109e-08
7.18303e-05
2.16886e-08
7.18318e-05
2.15925e-08
7.18326e-05
2.14432e-08
7.18331e-05
2.00228e-08
7.18338e-05
1.83793e-08
7.18357e-05
1.53495e-08
7.18381e-05
1.29509e-08
7.18411e-05
1.03974e-08
7.18451e-05
7.87785e-09
5.56663e-09
7.18495e-05
7.75289e-05
7.75325e-05
7.75377e-05
7.75439e-05
7.75507e-05
7.75579e-05
7.75654e-05
7.75732e-05
7.75812e-05
7.75895e-05
7.75976e-05
7.76055e-05
7.76129e-05
7.76192e-05
7.76237e-05
7.76259e-05
7.76271e-05
7.76274e-05
7.76273e-05
7.7627e-05
3.77645e-06
6.84095e-08
3.68179e-06
9.46612e-08
3.58172e-06
1.00068e-07
3.4832e-06
9.85219e-08
3.38498e-06
9.82173e-08
3.28555e-06
9.94298e-08
3.18432e-06
1.01236e-07
3.0812e-06
1.03115e-07
2.97633e-06
1.04875e-07
2.86977e-06
1.06555e-07
2.76148e-06
1.0829e-07
2.65128e-06
1.10207e-07
2.53915e-06
1.12128e-07
2.42523e-06
1.13918e-07
2.30954e-06
1.15691e-07
2.19213e-06
1.17411e-07
2.07305e-06
1.19074e-07
1.95266e-06
1.20392e-07
1.83135e-06
1.21311e-07
1.70967e-06
1.21686e-07
1.58845e-06
1.21217e-07
1.46904e-06
1.19409e-07
1.3536e-06
1.15442e-07
1.24449e-06
1.09112e-07
1.14495e-06
9.95319e-08
1.05849e-06
8.64596e-08
9.88329e-07
7.01648e-08
9.35759e-07
5.25705e-08
8.98882e-07
3.68768e-08
8.73573e-07
2.53093e-08
8.55763e-07
1.78093e-08
8.42614e-07
1.31494e-08
8.32076e-07
1.0538e-08
8.22991e-07
9.08513e-09
8.14522e-07
8.46916e-09
8.06016e-07
8.50531e-09
7.97132e-07
8.88462e-09
7.87742e-07
9.38964e-09
7.77879e-07
9.86315e-09
7.6762e-07
1.02585e-08
7.57154e-07
1.04664e-08
7.46445e-07
1.07087e-08
7.35513e-07
1.09319e-08
7.2448e-07
1.10332e-08
7.1345e-07
1.10303e-08
7.02523e-07
1.09268e-08
6.91698e-07
1.08254e-08
6.81123e-07
1.05748e-08
6.70804e-07
1.03187e-08
6.60719e-07
1.00852e-08
6.50913e-07
9.80648e-09
6.41266e-07
9.64619e-09
6.31893e-07
9.37306e-09
6.22778e-07
9.11566e-09
6.13817e-07
8.96037e-09
6.05239e-07
8.5779e-09
5.97044e-07
8.19579e-09
5.89066e-07
7.97813e-09
5.81332e-07
7.73342e-09
5.73765e-07
7.56686e-09
5.66475e-07
7.28985e-09
5.59581e-07
6.89475e-09
5.52862e-07
6.71876e-09
5.46352e-07
6.51018e-09
5.40163e-07
6.18838e-09
5.34199e-07
5.96432e-09
5.28512e-07
5.68731e-09
5.23027e-07
5.48425e-09
5.17853e-07
5.17464e-09
5.1307e-07
4.78263e-09
5.08389e-07
4.68115e-09
5.03944e-07
4.44466e-09
4.99865e-07
4.07939e-09
4.95807e-07
4.05787e-09
4.92073e-07
3.7346e-09
4.88918e-07
3.15456e-09
4.85711e-07
3.2067e-09
4.82479e-07
3.23212e-09
4.79735e-07
2.74373e-09
4.77391e-07
2.34472e-09
4.75057e-07
2.334e-09
4.72769e-07
2.28815e-09
4.70776e-07
1.99222e-09
4.69085e-07
1.69112e-09
4.67474e-07
1.61125e-09
4.65927e-07
1.54671e-09
4.64627e-07
1.29998e-09
4.63481e-07
1.14588e-09
4.62379e-07
1.10203e-09
4.61418e-07
9.61298e-10
4.606e-07
8.18092e-10
4.59865e-07
7.34727e-10
4.59179e-07
6.86421e-10
4.5861e-07
5.68747e-10
4.5811e-07
5.00295e-10
4.57665e-07
4.45055e-10
4.5725e-07
4.15005e-10
4.56874e-07
3.75864e-10
4.56425e-07
4.4869e-10
7.42504e-10
4.16625e-06
6.34696e-08
4.16998e-06
9.09302e-08
4.16429e-06
1.05756e-07
4.15416e-06
1.08654e-07
4.14317e-06
1.0921e-07
4.13104e-06
1.11552e-07
4.1167e-06
1.15582e-07
4.09949e-06
1.20328e-07
4.07932e-06
1.25038e-07
4.05613e-06
1.29745e-07
4.02988e-06
1.34541e-07
4.00032e-06
1.39764e-07
3.96729e-06
1.45163e-07
3.93063e-06
1.50573e-07
3.8902e-06
1.56128e-07
3.84585e-06
1.61758e-07
3.7974e-06
1.67521e-07
3.74478e-06
1.73013e-07
3.68794e-06
1.78157e-07
3.62693e-06
1.82697e-07
3.56186e-06
1.86287e-07
3.49321e-06
1.88055e-07
3.42184e-06
1.86812e-07
3.34878e-06
1.82175e-07
3.27539e-06
1.72914e-07
3.20349e-06
1.58359e-07
3.13518e-06
1.38481e-07
3.07203e-06
1.15718e-07
3.01503e-06
9.3878e-08
2.9637e-06
7.6635e-08
2.91648e-06
6.50317e-08
2.87183e-06
5.77976e-08
2.82902e-06
5.33514e-08
2.78732e-06
5.079e-08
2.74645e-06
4.93299e-08
2.70623e-06
4.87261e-08
2.66633e-06
4.87891e-08
2.62675e-06
4.89687e-08
2.58742e-06
4.919e-08
2.54848e-06
4.9205e-08
2.51007e-06
4.88698e-08
2.47195e-06
4.88331e-08
2.43421e-06
4.86731e-08
2.39687e-06
4.83671e-08
2.35997e-06
4.79306e-08
2.32367e-06
4.72273e-08
2.2879e-06
4.66026e-08
2.25291e-06
4.5556e-08
2.21876e-06
4.44763e-08
2.18522e-06
4.36222e-08
2.15258e-06
4.24471e-08
2.12078e-06
4.14421e-08
2.08965e-06
4.0503e-08
2.05932e-06
3.94524e-08
2.02978e-06
3.8499e-08
2.00116e-06
3.71977e-08
1.97356e-06
3.57948e-08
1.94675e-06
3.47832e-08
1.92065e-06
3.38339e-08
1.89538e-06
3.28405e-08
1.87104e-06
3.16348e-08
1.8475e-06
3.04282e-08
1.82464e-06
2.95798e-08
1.80266e-06
2.84937e-08
1.78156e-06
2.72819e-08
1.7611e-06
2.64286e-08
1.74136e-06
2.54273e-08
1.72248e-06
2.43598e-08
1.70455e-06
2.31102e-08
1.68747e-06
2.18562e-08
1.67101e-06
2.11411e-08
1.65528e-06
2.01782e-08
1.64043e-06
1.89279e-08
1.62633e-06
1.81589e-08
1.61312e-06
1.69438e-08
1.60078e-06
1.54939e-08
1.58892e-06
1.5073e-08
1.57775e-06
1.44028e-08
1.56759e-06
1.29003e-08
1.55821e-06
1.17227e-08
1.54931e-06
1.12354e-08
1.54101e-06
1.05922e-08
1.53346e-06
9.53385e-09
1.52661e-06
8.54445e-09
1.52025e-06
7.96921e-09
1.51441e-06
7.38627e-09
1.50917e-06
6.5419e-09
1.50442e-06
5.89718e-09
1.50006e-06
5.46418e-09
1.49618e-06
4.84199e-09
1.4927e-06
4.29842e-09
1.48959e-06
3.8395e-09
1.48677e-06
3.50945e-09
1.48434e-06
2.99898e-09
1.48214e-06
2.69995e-09
1.48025e-06
2.32994e-09
1.4785e-06
2.16998e-09
1.47702e-06
1.85429e-09
1.47555e-06
1.91551e-09
2.46949e-09
4.49866e-06
6.19453e-08
4.50451e-06
8.50808e-08
4.50785e-06
1.02411e-07
4.50714e-06
1.09369e-07
4.50552e-06
1.10827e-07
4.50482e-06
1.12257e-07
4.50476e-06
1.15644e-07
4.50456e-06
1.20519e-07
4.50383e-06
1.25776e-07
4.50236e-06
1.31212e-07
4.50016e-06
1.36742e-07
4.4971e-06
1.42823e-07
4.49304e-06
1.49218e-07
4.48784e-06
1.55777e-07
4.48136e-06
1.62609e-07
4.47348e-06
1.69633e-07
4.46408e-06
1.7693e-07
4.45297e-06
1.84118e-07
4.44003e-06
1.91094e-07
4.42518e-06
1.97549e-07
4.4083e-06
2.03167e-07
4.38942e-06
2.06935e-07
4.36845e-06
2.07779e-07
4.34563e-06
2.05004e-07
4.32101e-06
1.97531e-07
4.29491e-06
1.84461e-07
4.26776e-06
1.65632e-07
4.2403e-06
1.43176e-07
4.21355e-06
1.20623e-07
4.18813e-06
1.02055e-07
4.16373e-06
8.94297e-08
4.13967e-06
8.18578e-08
4.11555e-06
7.74757e-08
4.09111e-06
7.52254e-08
4.06622e-06
7.42275e-08
4.04082e-06
7.41248e-08
4.01491e-06
7.46973e-08
3.9884e-06
7.54768e-08
3.96128e-06
7.63152e-08
3.93359e-06
7.68922e-08
3.90532e-06
7.71427e-08
3.87646e-06
7.76918e-08
3.84686e-06
7.82678e-08
3.8167e-06
7.85281e-08
3.78604e-06
7.85976e-08
3.7548e-06
7.84613e-08
3.72326e-06
7.8144e-08
3.69132e-06
7.74917e-08
3.65914e-06
7.66632e-08
3.62675e-06
7.60048e-08
3.59403e-06
7.51681e-08
3.56126e-06
7.4219e-08
3.52827e-06
7.34852e-08
3.49506e-06
7.26673e-08
3.46188e-06
7.16768e-08
3.42874e-06
7.03398e-08
3.3958e-06
6.87371e-08
3.36301e-06
6.75749e-08
3.33024e-06
6.66029e-08
3.29771e-06
6.53684e-08
3.26555e-06
6.37903e-08
3.23376e-06
6.22248e-08
3.2022e-06
6.11345e-08
3.17101e-06
5.9687e-08
3.14049e-06
5.78022e-08
3.1104e-06
5.65146e-08
3.08063e-06
5.52013e-08
3.05165e-06
5.33391e-08
3.02351e-06
5.12488e-08
2.99593e-06
4.94335e-08
2.96917e-06
4.79004e-08
2.94329e-06
4.60636e-08
2.91801e-06
4.42093e-08
2.89367e-06
4.24982e-08
2.87067e-06
3.9938e-08
2.84856e-06
3.76072e-08
2.82702e-06
3.66154e-08
2.80659e-06
3.48261e-08
2.78755e-06
3.19406e-08
2.7695e-06
2.97765e-08
2.75221e-06
2.85289e-08
2.73597e-06
2.68262e-08
2.72091e-06
2.45976e-08
2.70684e-06
2.26164e-08
2.69361e-06
2.11927e-08
2.6814e-06
1.96017e-08
2.67011e-06
1.78278e-08
2.65969e-06
1.63231e-08
2.65001e-06
1.51362e-08
2.64125e-06
1.36052e-08
2.63317e-06
1.23751e-08
2.62587e-06
1.11428e-08
2.61913e-06
1.02468e-08
2.61318e-06
8.95165e-09
2.60767e-06
8.21306e-09
2.60287e-06
7.1273e-09
2.59837e-06
6.6713e-09
2.59451e-06
5.71237e-09
2.59083e-06
5.59529e-09
5.91034e-09
4.85939e-06
6.18913e-08
4.86367e-06
8.08095e-08
4.86816e-06
9.79168e-08
4.86933e-06
1.08201e-07
4.86858e-06
1.11577e-07
4.86837e-06
1.12461e-07
4.86899e-06
1.15029e-07
4.87026e-06
1.19245e-07
4.87173e-06
1.24308e-07
4.8731e-06
1.29845e-07
4.87434e-06
1.35502e-07
4.87547e-06
1.41689e-07
4.87647e-06
1.48218e-07
4.8773e-06
1.54943e-07
4.87797e-06
1.61948e-07
4.87845e-06
1.69147e-07
4.87877e-06
1.76615e-07
4.87886e-06
1.84024e-07
4.87872e-06
1.91234e-07
4.87835e-06
1.97915e-07
4.87774e-06
2.03785e-07
4.87685e-06
2.07827e-07
4.87543e-06
2.09191e-07
4.87331e-06
2.07125e-07
4.87028e-06
2.00564e-07
4.86596e-06
1.88785e-07
4.86e-06
1.71586e-07
4.85252e-06
1.50654e-07
4.84415e-06
1.28996e-07
4.83566e-06
1.10548e-07
4.82743e-06
9.76616e-08
4.8192e-06
9.00792e-08
4.81079e-06
8.58905e-08
4.80205e-06
8.39621e-08
4.79288e-06
8.34024e-08
4.78333e-06
8.36763e-08
4.77346e-06
8.45639e-08
4.76324e-06
8.56923e-08
4.75261e-06
8.69523e-08
4.74158e-06
8.79211e-08
4.73006e-06
8.86603e-08
4.71805e-06
8.97061e-08
4.70541e-06
9.09035e-08
4.69211e-06
9.18318e-08
4.67822e-06
9.24832e-08
4.66361e-06
9.30683e-08
4.64847e-06
9.32878e-08
4.63277e-06
9.31971e-08
4.61647e-06
9.29589e-08
4.59972e-06
9.27506e-08
4.58233e-06
9.25645e-08
4.56439e-06
9.21612e-08
4.54592e-06
9.19529e-08
4.52677e-06
9.18195e-08
4.50713e-06
9.13136e-08
4.48701e-06
9.04542e-08
4.46638e-06
8.93736e-08
4.44532e-06
8.86354e-08
4.42376e-06
8.81587e-08
4.40173e-06
8.7396e-08
4.37944e-06
8.60846e-08
4.3568e-06
8.48642e-08
4.33377e-06
8.4168e-08
4.31046e-06
8.29928e-08
4.28698e-06
8.1281e-08
4.26334e-06
8.01565e-08
4.23943e-06
7.91131e-08
4.21541e-06
7.73612e-08
4.19157e-06
7.50861e-08
4.16762e-06
7.33869e-08
4.14364e-06
7.1876e-08
4.12e-06
6.97022e-08
4.09639e-06
6.78196e-08
4.0729e-06
6.59849e-08
4.05011e-06
6.27305e-08
4.02766e-06
6.00554e-08
4.00527e-06
5.90058e-08
3.98348e-06
5.66206e-08
3.96252e-06
5.28956e-08
3.94216e-06
5.01398e-08
3.9222e-06
4.84876e-08
3.90297e-06
4.60557e-08
3.88459e-06
4.29783e-08
3.86701e-06
4.01951e-08
3.85002e-06
3.81814e-08
3.83397e-06
3.56609e-08
3.81868e-06
3.31165e-08
3.80421e-06
3.07846e-08
3.79041e-06
2.89458e-08
3.7776e-06
2.64131e-08
3.76543e-06
2.45429e-08
3.75418e-06
2.23908e-08
3.74349e-06
2.09353e-08
3.73382e-06
1.86231e-08
3.72461e-06
1.74247e-08
3.7164e-06
1.53329e-08
3.70853e-06
1.45493e-08
3.70161e-06
1.26297e-08
3.69491e-06
1.22961e-08
1.18111e-08
5.24925e-06
6.21409e-08
5.25235e-06
7.7707e-08
5.25635e-06
9.39107e-08
5.25875e-06
1.05809e-07
5.25906e-06
1.1126e-07
5.25882e-06
1.12702e-07
5.25913e-06
1.14721e-07
5.26025e-06
1.18127e-07
5.26187e-06
1.2269e-07
5.26358e-06
1.28131e-07
5.26524e-06
1.33844e-07
5.2669e-06
1.40025e-07
5.26854e-06
1.46582e-07
5.27017e-06
1.53308e-07
5.27184e-06
1.60281e-07
5.27359e-06
1.67394e-07
5.27547e-06
1.74737e-07
5.27749e-06
1.82002e-07
5.2797e-06
1.89029e-07
5.28217e-06
1.95445e-07
5.28493e-06
2.01027e-07
5.28797e-06
2.0478e-07
5.2911e-06
2.06069e-07
5.29409e-06
2.04135e-07
5.29667e-06
1.97977e-07