/*--------------------------------*- C++ -*----------------------------------*\
| =========                 |                                                 |
| \\      /  F ield         | OpenFOAM: The Open Source CFD Toolbox           |
|  \\    /   O peration     | Version:  v1906                                 |
|   \\  /    A nd           | Web:      www.OpenFOAM.com                      |
|    \\/     M anipulation  |                                                 |
\*---------------------------------------------------------------------------*/
FoamFile
{
    version     2.0;
    format      ascii;
    class       volVectorField;
    location    "0.9";
    object      U;
}
// * * * * * * * * * * * * * * * * * * * * * * * * * * * * * * * * * * * * * //

dimensions      [0 1 -1 0 0 0 0];


internalField   nonuniform List<vector> 
4800
(
(0.960364 -4.66388e-06 0)
(1.03889 -0.000317556 0)
(0.963909 0.00016308 0)
(1.03554 -0.000268382 0)
(0.967266 0.000245845 0)
(1.03203 -0.000291381 0)
(0.97078 -8.72619e-06 0)
(1.02852 -0.000567973 0)
(0.973711 -9.30314e-05 0)
(1.02529 -0.000693402 0)
(0.976255 -9.35187e-05 0)
(1.02225 -0.000476613 0)
(0.978857 0.000127118 0)
(1.01945 -0.00035248 0)
(0.981006 0.000349652 0)
(1.01676 2.0462e-05 0)
(0.983078 0.000443418 0)
(1.01399 0.000109589 0)
(0.984289 0.000698171 0)
(1.01102 0.000986973 0)
(0.982725 -6.97546e-05 0)
(1.01463 -0.000286467 0)
(0.986604 0.000125961 0)
(1.0115 -0.000239139 0)
(0.989831 0.000235495 0)
(1.00861 -0.000302602 0)
(0.992777 -2.55112e-05 0)
(1.00611 -0.000614347 0)
(0.994664 -8.71419e-05 0)
(1.00417 -0.000751181 0)
(0.995938 -0.000113043 0)
(1.0026 -0.000563064 0)
(0.997078 0.000115095 0)
(1.00138 -0.000433384 0)
(0.997689 0.0003287 0)
(1.0003 -2.15064e-05 0)
(0.998144 0.000491139 0)
(0.999187 0.000304577 0)
(0.997972 0.0013063 0)
(0.997962 0.00208176 0)
(0.995984 1.99286e-05 0)
(1.00267 -0.000348084 0)
(0.997329 0.00018269 0)
(1.00177 -0.000281234 0)
(0.998372 0.000242257 0)
(1.00112 -0.00028483 0)
(0.99932 -2.75769e-05 0)
(1.00064 -0.000499427 0)
(0.999509 -0.00017043 0)
(1.00027 -0.000551055 0)
(0.99951 -0.000246346 0)
(0.999919 -0.000328313 0)
(0.999606 -8.75171e-05 0)
(0.999676 -0.000215248 0)
(0.999384 5.51382e-05 0)
(0.999365 0.000204381 0)
(0.999202 0.000353447 0)
(0.998911 0.000832569 0)
(0.998664 0.00165331 0)
(0.998312 0.00258702 0)
(0.999482 -3.67137e-06 0)
(1.00023 -0.000356029 0)
(0.999665 0.000156855 0)
(1.00022 -0.000271605 0)
(0.999958 0.000210813 0)
(1.00029 -0.000269839 0)
(1.00033 -0.000120389 0)
(1.00028 -0.000438032 0)
(1.0002 -0.000286064 0)
(1.00016 -0.000476231 0)
(1.00002 -0.000354008 0)
(0.999963 -0.000302152 0)
(0.999972 -0.000200461 0)
(0.999823 -0.000201539 0)
(0.999711 2.45298e-07 0)
(0.999584 0.000319286 0)
(0.99951 0.000508246 0)
(0.999274 0.0012119 0)
(0.999066 0.00201867 0)
(0.998738 0.00276799 0)
(1.00002 2.25173e-05 0)
(0.999979 -0.000327436 0)
(0.999993 0.000127096 0)
(1.0001 -0.000218086 0)
(1.00019 0.000132218 0)
(1.00031 -0.000177794 0)
(1.00047 -0.000220416 0)
(1.00034 -0.000305262 0)
(1.00034 -0.000355289 0)
(1.00023 -0.000426205 0)
(1.00015 -0.000383624 0)
(1.00006 -0.000344297 0)
(1.00009 -0.000245202 0)
(0.999936 -0.000195164 0)
(0.999862 5.28821e-06 0)
(0.999753 0.000399097 0)
(0.999736 0.000834423 0)
(0.999561 0.0015733 0)
(0.999358 0.00224622 0)
(0.999042 0.00287698 0)
(1.00008 2.499e-06 0)
(0.999971 -0.000305906 0)
(1.00004 5.7768e-05 0)
(1.0001 -0.000163196 0)
(1.00022 3.83423e-05 0)
(1.00034 -9.31328e-05 0)
(1.00049 -0.000312468 0)
(1.00035 -0.00028041 0)
(1.00038 -0.00038371 0)
(1.00027 -0.000447679 0)
(1.00019 -0.000440759 0)
(1.0001 -0.000353502 0)
(1.00012 -0.000286398 0)
(0.999986 -0.00016468 0)
(0.999952 8.92203e-05 0)
(0.999882 0.000673625 0)
(0.999908 0.00122917 0)
(0.999746 0.00183149 0)
(0.999552 0.00238903 0)
(0.999255 0.00295571 0)
(1.00008 1.06504e-05 0)
(0.999977 -0.000271612 0)
(1.00005 6.58545e-06 0)
(1.0001 -0.00011242 0)
(1.00023 -2.02849e-05 0)
(1.00034 -7.88619e-05 0)
(1.00049 -0.000286203 0)
(1.00035 -0.000336632 0)
(1.00038 -0.000379289 0)
(1.00028 -0.00047107 0)
(1.00021 -0.000453615 0)
(1.00012 -0.000374194 0)
(1.00015 -0.000284903 0)
(1.00003 -6.11853e-05 0)
(1.00005 0.000326662 0)
(1.00002 0.00100387 0)
(1.00003 0.0014717 0)
(0.999884 0.00192436 0)
(0.999706 0.0024368 0)
(0.999435 0.00297518 0)
(1.00007 -4.42784e-06 0)
(0.999985 -0.00021854 0)
(1.00006 -7.36173e-05 0)
(1.00012 -7.08063e-05 0)
(1.00023 -6.28779e-05 0)
(1.00034 -0.000107124 0)
(1.00047 -0.000273934 0)
(1.00036 -0.000360971 0)
(1.00037 -0.000450223 0)
(1.00029 -0.00049894 0)
(1.00022 -0.000477056 0)
(1.00015 -0.000375174 0)
(1.00018 -0.000203124 0)
(1.00011 0.000166375 0)
(1.00017 0.000665579 0)
(1.00014 0.00120882 0)
(1.00013 0.00159288 0)
(1.00001 0.00197041 0)
(0.999858 0.00246311 0)
(0.999614 0.00299487 0)
(1.00007 -1.88732e-06 0)
(0.999989 -0.00018285 0)
(1.00007 -0.000106488 0)
(1.00013 -8.91238e-05 0)
(1.00023 -4.79736e-05 0)
(1.00034 -0.000165526 0)
(1.00046 -0.000293745 0)
(1.00035 -0.000362057 0)
(1.00036 -0.000469715 0)
(1.0003 -0.000542479 0)
(1.00023 -0.000446525 0)
(1.00019 -0.000322286 0)
(1.00025 -1.5887e-05 0)
(1.00021 0.000450458 0)
(1.00027 0.000857332 0)
(1.00024 0.00126841 0)
(1.00022 0.00163187 0)
(1.00014 0.00200142 0)
(1.00002 0.00247509 0)
(0.9998 0.0030025 0)
(1.00007 -1.07017e-05 0)
(0.99999 -0.000149383 0)
(1.00007 -0.000111851 0)
(1.00014 -0.000137177 0)
(1.00023 -5.03117e-05 0)
(1.00034 -0.000179448 0)
(1.00046 -0.000352226 0)
(1.00035 -0.000392856 0)
(1.00035 -0.00046585 0)
(1.00031 -0.000559923 0)
(1.00026 -0.000421923 0)
(1.00024 -0.000139387 0)
(1.00034 0.000246377 0)
(1.00031 0.000651346 0)
(1.00036 0.000966248 0)
(1.00034 0.00131825 0)
(1.00033 0.00169313 0)
(1.00027 0.00207601 0)
(1.00019 0.00252441 0)
(0.999994 0.00302581 0)
(1.00006 -1.54083e-05 0)
(0.99999 -0.000124073 0)
(1.00007 -9.26589e-05 0)
(1.00014 -0.00019168 0)
(1.00023 -0.00010389 0)
(1.00032 -0.000150762 0)
(1.00044 -0.000402108 0)
(1.00035 -0.000445868 0)
(1.00034 -0.00046167 0)
(1.00032 -0.00049756 0)
(1.00031 -0.000317724 0)
(1.00033 8.37566e-05 0)
(1.00042 0.000416927 0)
(1.00038 0.000754896 0)
(1.00044 0.001041 0)
(1.00044 0.00136768 0)
(1.00045 0.00174841 0)
(1.00041 0.00214388 0)
(1.00036 0.00256952 0)
(1.00019 0.00303314 0)
(1.00006 -1.49205e-05 0)
(0.999989 -0.000120411 0)
(1.00007 -7.50618e-05 0)
(1.00015 -0.000205043 0)
(1.00024 -0.000186038 0)
(1.00031 -0.00018167 0)
(1.00043 -0.00037185 0)
(1.00035 -0.000490146 0)
(1.00035 -0.000459065 0)
(1.00035 -0.000368847 0)
(1.00038 -0.000110844 0)
(1.0004 0.000204376 0)
(1.0005 0.000488395 0)
(1.00046 0.000805496 0)
(1.00053 0.00109409 0)
(1.00055 0.00140525 0)
(1.00058 0.00177927 0)
(1.00056 0.00218177 0)
(1.00053 0.00259135 0)
(1.00038 0.00302009 0)
(1.00006 -2.61795e-05 0)
(0.99999 -0.000107529 0)
(1.00007 -8.07048e-05 0)
(1.00014 -0.000155062 0)
(1.00025 -0.000284272 0)
(1.00031 -0.00025303 0)
(1.00041 -0.000355353 0)
(1.00035 -0.000437521 0)
(1.00037 -0.000439142 0)
(1.00039 -0.000232911 0)
(1.00044 6.39395e-05 0)
(1.00047 0.000339698 0)
(1.00057 0.000573872 0)
(1.00055 0.000876632 0)
(1.00062 0.0011756 0)
(1.00066 0.00148566 0)
(1.00072 0.00184519 0)
(1.00072 0.00224537 0)
(1.00071 0.00263578 0)
(1.00057 0.00302865 0)
(1.00006 -2.3303e-05 0)
(0.99999 -0.000112313 0)
(1.00007 -9.41052e-05 0)
(1.00013 -0.000136233 0)
(1.00024 -0.000290774 0)
(1.00031 -0.000364676 0)
(1.00041 -0.000377777 0)
(1.00035 -0.000326275 0)
(1.0004 -0.000302776 0)
(1.00046 -0.000137004 0)
(1.00051 0.000162841 0)
(1.00053 0.000435481 0)
(1.00064 0.000640887 0)
(1.00064 0.000923738 0)
(1.00072 0.00123732 0)
(1.00079 0.00155301 0)
(1.00087 0.00189174 0)
(1.00089 0.00227629 0)
(1.00088 0.00265121 0)
(1.00076 0.00301784 0)
(1.00006 -3.42136e-05 0)
(0.99999 -9.14725e-05 0)
(1.00007 -0.000138548 0)
(1.00012 -0.000127739 0)
(1.00022 -0.000263795 0)
(1.0003 -0.000394884 0)
(1.00043 -0.000455665 0)
(1.00037 -0.00026084 0)
(1.00042 -9.76688e-05 0)
(1.00051 -1.87977e-05 0)
(1.00058 0.000211095 0)
(1.0006 0.000487208 0)
(1.00072 0.000705046 0)
(1.00074 0.000980274 0)
(1.00084 0.00129554 0)
(1.00091 0.00161114 0)
(1.00102 0.00192675 0)
(1.00106 0.00228725 0)
(1.00107 0.00264984 0)
(1.00096 0.00299804 0)
(1.00005 -3.96557e-05 0)
(0.999985 -7.7898e-05 0)
(1.00007 -0.000160863 0)
(1.00012 -0.000179791 0)
(1.00021 -0.000213026 0)
(1.00029 -0.000341365 0)
(1.00045 -0.000457302 0)
(1.00043 -0.000259492 0)
(1.00046 2.25109e-05 0)
(1.00054 0.000143406 0)
(1.00065 0.000310542 0)
(1.00068 0.000562865 0)
(1.0008 0.000781784 0)
(1.00084 0.00104425 0)
(1.00096 0.0013452 0)
(1.00104 0.00165861 0)
(1.00117 0.00196171 0)
(1.00124 0.00229857 0)
(1.00126 0.00264473 0)
(1.00115 0.00297377 0)
(1.00005 -3.74643e-05 0)
(0.999982 -0.000101012 0)
(1.00007 -0.000134159 0)
(1.00012 -0.000243252 0)
(1.00021 -0.000205154 0)
(1.00027 -0.000241248 0)
(1.00046 -0.000357436 0)
(1.00049 -0.000259019 0)
(1.00053 4.22565e-05 0)
(1.00059 0.000256574 0)
(1.00071 0.000419282 0)
(1.00075 0.000646379 0)
(1.00088 0.000857301 0)
(1.00095 0.00110748 0)
(1.00108 0.00139109 0)
(1.00118 0.00170122 0)
(1.00133 0.00199785 0)
(1.00142 0.002308 0)
(1.00145 0.00263006 0)
(1.00135 0.00293563 0)
(1.00005 -3.89363e-05 0)
(0.999982 -0.000121471 0)
(1.00006 -0.000129185 0)
(1.00012 -0.000246424 0)
(1.00022 -0.000254732 0)
(1.00027 -0.000160604 0)
(1.00046 -0.000218524 0)
(1.00054 -0.000172038 0)
(1.0006 4.62695e-05 0)
(1.00066 0.000276705 0)
(1.00078 0.000480859 0)
(1.00083 0.000716481 0)
(1.00097 0.000931976 0)
(1.00106 0.00117492 0)
(1.00122 0.00144101 0)
(1.00133 0.00174176 0)
(1.00148 0.00203161 0)
(1.00159 0.00231607 0)
(1.00164 0.00261255 0)
(1.00154 0.00289341 0)
(1.00005 -3.86722e-05 0)
(0.999985 -0.000142081 0)
(1.00006 -0.000142083 0)
(1.00012 -0.000205596 0)
(1.00025 -0.000270161 0)
(1.0003 -0.000138827 0)
(1.00047 -8.49574e-05 0)
(1.00058 -4.35208e-05 0)
(1.00067 9.96951e-05 0)
(1.00073 0.000305952 0)
(1.00087 0.000517395 0)
(1.00092 0.000767087 0)
(1.00107 0.000991166 0)
(1.00117 0.0012328 0)
(1.00135 0.00148261 0)
(1.00149 0.00176496 0)
(1.00165 0.00204685 0)
(1.00177 0.00231074 0)
(1.00183 0.00258503 0)
(1.00174 0.00284353 0)
(1.00005 -4.34314e-05 0)
(0.999987 -0.000146222 0)
(1.00007 -0.000167042 0)
(1.00012 -0.000177442 0)
(1.00026 -0.000220642 0)
(1.00034 -0.000131729 0)
(1.00051 -8.91719e-06 0)
(1.00062 7.7253e-05 0)
(1.00073 0.000200514 0)
(1.00081 0.000366988 0)
(1.00096 0.000555389 0)
(1.00102 0.000801809 0)
(1.00118 0.00103287 0)
(1.0013 0.00127922 0)
(1.0015 0.00152113 0)
(1.00165 0.00178081 0)
(1.00182 0.0020546 0)
(1.00195 0.00230311 0)
(1.00202 0.00255796 0)
(1.00195 0.00279464 0)
(1.00005 -4.60833e-05 0)
(0.999988 -0.000146368 0)
(1.00008 -0.000182336 0)
(1.00013 -0.000160228 0)
(1.00029 -0.000161478 0)
(1.00038 -8.29433e-05 0)
(1.00056 3.326e-05 0)
(1.00067 0.000156204 0)
(1.00079 0.000292591 0)
(1.00088 0.000443342 0)
(1.00105 0.000607195 0)
(1.00114 0.000835882 0)
(1.0013 0.00106431 0)
(1.00143 0.00130715 0)
(1.00164 0.001546 0)
(1.00182 0.00178351 0)
(1.002 0.00204401 0)
(1.00214 0.00228111 0)
(1.00222 0.00251663 0)
(1.00215 0.00273405 0)
(1.00005 -4.5885e-05 0)
(0.99999 -0.000146348 0)
(1.00009 -0.000178519 0)
(1.00016 -0.000147203 0)
(1.00032 -0.000107897 0)
(1.00043 -1.3946e-05 0)
(1.00061 8.15893e-05 0)
(1.00073 0.000206261 0)
(1.00086 0.000352929 0)
(1.00096 0.000514394 0)
(1.00115 0.000668091 0)
(1.00125 0.000878225 0)
(1.00143 0.00109807 0)
(1.00157 0.00132925 0)
(1.00179 0.00156437 0)
(1.00198 0.00178728 0)
(1.00218 0.00202729 0)
(1.00233 0.00225428 0)
(1.00241 0.00247021 0)
(1.00234 0.00267211 0)
(1.00005 -4.62836e-05 0)
(0.999993 -0.000137608 0)
(1.00011 -0.000167512 0)
(1.00019 -0.000124872 0)
(1.00036 -6.47413e-05 0)
(1.00047 4.03282e-05 0)
(1.00067 0.000144946 0)
(1.0008 0.000262386 0)
(1.00094 0.000409641 0)
(1.00104 0.00057423 0)
(1.00124 0.000725765 0)
(1.00137 0.000918645 0)
(1.00157 0.00112875 0)
(1.00172 0.00134716 0)
(1.00195 0.00157175 0)
(1.00215 0.00178475 0)
(1.00237 0.00200145 0)
(1.00252 0.00221383 0)
(1.00261 0.00241284 0)
(1.00254 0.00260064 0)
(1.00005 -4.29564e-05 0)
(0.999997 -0.000123769 0)
(1.00013 -0.000147193 0)
(1.00022 -9.37807e-05 0)
(1.0004 -2.59228e-05 0)
(1.00053 8.37973e-05 0)
(1.00073 0.000198577 0)
(1.00087 0.000315551 0)
(1.00102 0.000457593 0)
(1.00113 0.000623422 0)
(1.00134 0.000774959 0)
(1.00149 0.000953311 0)
(1.0017 0.00115099 0)
(1.00187 0.00135863 0)
(1.00211 0.00156896 0)
(1.00232 0.00177218 0)
(1.00255 0.0019714 0)
(1.00271 0.00216524 0)
(1.00281 0.00234994 0)
(1.00274 0.00252186 0)
(1.00004 -3.97586e-05 0)
(1 -0.000102495 0)
(1.00015 -0.000118199 0)
(1.00026 -6.34252e-05 0)
(1.00045 1.7407e-05 0)
(1.00059 0.000124243 0)
(1.00079 0.000240464 0)
(1.00094 0.000361339 0)
(1.0011 0.000498293 0)
(1.00122 0.000662807 0)
(1.00144 0.000816021 0)
(1.00161 0.000984723 0)
(1.00184 0.00116842 0)
(1.00203 0.00136438 0)
(1.00228 0.00156031 0)
(1.0025 0.00175013 0)
(1.00273 0.00193614 0)
(1.0029 0.00211086 0)
(1.003 0.00228102 0)
(1.00293 0.00243584 0)
(1.00004 -3.35023e-05 0)
(1.00001 -7.79214e-05 0)
(1.00018 -8.29481e-05 0)
(1.0003 -2.84696e-05 0)
(1.0005 5.56307e-05 0)
(1.00065 0.000162305 0)
(1.00086 0.00027621 0)
(1.00101 0.000399018 0)
(1.00119 0.000534856 0)
(1.00132 0.000694945 0)
(1.00155 0.00084737 0)
(1.00173 0.00101034 0)
(1.00198 0.0011791 0)
(1.00218 0.0013595 0)
(1.00244 0.00154431 0)
(1.00267 0.00171673 0)
(1.00291 0.00189064 0)
(1.00308 0.00204784 0)
(1.00319 0.00220354 0)
(1.00312 0.00234324 0)
(1.00004 -2.55256e-05 0)
(1.00001 -5.18403e-05 0)
(1.0002 -4.45771e-05 0)
(1.00033 8.18733e-06 0)
(1.00055 8.99316e-05 0)
(1.00071 0.000198355 0)
(1.00092 0.000311169 0)
(1.00109 0.000430536 0)
(1.00128 0.000562573 0)
(1.00142 0.000718942 0)
(1.00165 0.000865597 0)
(1.00185 0.00102295 0)
(1.00211 0.00118212 0)
(1.00233 0.00134277 0)
(1.0026 0.00151912 0)
(1.00284 0.00167472 0)
(1.00308 0.00183481 0)
(1.00326 0.00197748 0)
(1.00337 0.00211602 0)
(1.0033 0.00224437 0)
(1.00004 -1.62989e-05 0)
(1.00002 -2.52611e-05 0)
(1.00021 -4.09838e-06 0)
(1.00036 4.9204e-05 0)
(1.0006 0.00012581 0)
(1.00077 0.000228457 0)
(1.00099 0.00034074 0)
(1.00116 0.000457088 0)
(1.00137 0.000581222 0)
(1.00152 0.000732503 0)
(1.00176 0.000875281 0)
(1.00197 0.00102275 0)
(1.00224 0.00117745 0)
(1.00248 0.00131923 0)
(1.00275 0.00147981 0)
(1.003 0.0016239 0)
(1.00325 0.00176667 0)
(1.00343 0.00189938 0)
(1.00354 0.00201865 0)
(1.00347 0.00213756 0)
(1.00004 -6.66398e-06 0)
(1.00002 2.91333e-06 0)
(1.00023 3.49432e-05 0)
(1.00039 8.98848e-05 0)
(1.00064 0.000161755 0)
(1.00082 0.000256785 0)
(1.00105 0.000364698 0)
(1.00123 0.000479714 0)
(1.00145 0.000596156 0)
(1.00161 0.00073687 0)
(1.00186 0.000876079 0)
(1.00208 0.00101125 0)
(1.00236 0.00115776 0)
(1.00261 0.00129024 0)
(1.0029 0.00142876 0)
(1.00315 0.00156293 0)
(1.0034 0.00168925 0)
(1.00358 0.00181205 0)
(1.0037 0.00191688 0)
(1.00363 0.00202237 0)
(1.00004 3.03923e-06 0)
(1.00003 2.98964e-05 0)
(1.00025 7.17065e-05 0)
(1.00042 0.00012918 0)
(1.00068 0.000197146 0)
(1.00087 0.000284941 0)
(1.00111 0.000385471 0)
(1.00129 0.000494895 0)
(1.00153 0.000605025 0)
(1.0017 0.000733599 0)
(1.00196 0.000866271 0)
(1.00219 0.000991146 0)
(1.00248 0.00112307 0)
(1.00273 0.00125051 0)
(1.00303 0.00137214 0)
(1.00329 0.00149096 0)
(1.00355 0.00160388 0)
(1.00373 0.00171281 0)
(1.00385 0.00180915 0)
(1.00377 0.00189909 0)
(1.00004 1.2047e-05 0)
(1.00003 5.553e-05 0)
(1.00026 0.000106656 0)
(1.00044 0.000166851 0)
(1.0007 0.000230904 0)
(1.00091 0.000310406 0)
(1.00116 0.000402449 0)
(1.00135 0.000504952 0)
(1.0016 0.000607832 0)
(1.00179 0.000723362 0)
(1.00205 0.000846959 0)
(1.00229 0.000963323 0)
(1.00259 0.00107914 0)
(1.00285 0.00119435 0)
(1.00315 0.0013064 0)
(1.00341 0.00140914 0)
(1.00368 0.00150851 0)
(1.00386 0.00160317 0)
(1.00398 0.00169031 0)
(1.0039 0.00176936 0)
(1.00004 2.06982e-05 0)
(1.00004 7.89898e-05 0)
(1.00026 0.000138879 0)
(1.00045 0.000200453 0)
(1.00072 0.000262001 0)
(1.00094 0.000333167 0)
(1.0012 0.000415033 0)
(1.0014 0.000508943 0)
(1.00166 0.000604529 0)
(1.00186 0.000706714 0)
(1.00213 0.000817224 0)
(1.00237 0.000924544 0)
(1.00268 0.00102898 0)
(1.00295 0.00112625 0)
(1.00326 0.00122651 0)
(1.00352 0.00131848 0)
(1.0038 0.00140251 0)
(1.00398 0.00148456 0)
(1.0041 0.00155829 0)
(1.00402 0.0016292 0)
(1.00004 2.84333e-05 0)
(1.00004 9.93492e-05 0)
(1.00027 0.000167368 0)
(1.00045 0.000229752 0)
(1.00074 0.000288779 0)
(1.00096 0.000352271 0)
(1.00123 0.000424458 0)
(1.00144 0.00050712 0)
(1.00171 0.000593589 0)
(1.00192 0.000685351 0)
(1.0022 0.000780202 0)
(1.00245 0.000873419 0)
(1.00276 0.000969912 0)
(1.00303 0.00105195 0)
(1.00335 0.00113392 0)
(1.00361 0.00121575 0)
(1.00389 0.00128537 0)
(1.00407 0.00135492 0)
(1.00419 0.00141478 0)
(1.00412 0.00147476 0)
(1.00004 3.50232e-05 0)
(1.00004 0.000115988 0)
(1.00027 0.000190606 0)
(1.00045 0.000254356 0)
(1.00074 0.000310212 0)
(1.00097 0.000366506 0)
(1.00125 0.00042992 0)
(1.00147 0.000501814 0)
(1.00174 0.000575485 0)
(1.00197 0.000657695 0)
(1.00225 0.000740669 0)
(1.00251 0.000814662 0)
(1.00282 0.000899904 0)
(1.00309 0.000972813 0)
(1.00342 0.00103594 0)
(1.00368 0.0011035 0)
(1.00396 0.00116035 0)
(1.00414 0.00121705 0)
(1.00426 0.00126492 0)
(1.00419 0.00131158 0)
(1.00004 3.97806e-05 0)
(1.00004 0.000127865 0)
(1.00027 0.000207245 0)
(1.00045 0.000272418 0)
(1.00073 0.000325948 0)
(1.00097 0.000375746 0)
(1.00126 0.000428788 0)
(1.00148 0.000492291 0)
(1.00177 0.00055307 0)
(1.002 0.000620199 0)
(1.00228 0.000697407 0)
(1.00255 0.000755292 0)
(1.00287 0.00082189 0)
(1.00313 0.000888683 0)
(1.00346 0.000937796 0)
(1.00373 0.000989452 0)
(1.00401 0.00103304 0)
(1.00419 0.00107633 0)
(1.00431 0.00111277 0)
(1.00424 0.00114591 0)
(1.00004 4.26099e-05 0)
(1.00004 0.000133084 0)
(1.00026 0.000215178 0)
(1.00044 0.000281041 0)
(1.00072 0.000334152 0)
(1.00095 0.000380705 0)
(1.00125 0.000423676 0)
(1.00148 0.000475973 0)
(1.00177 0.00053009 0)
(1.00202 0.000576346 0)
(1.00231 0.000643408 0)
(1.00257 0.000696702 0)
(1.0029 0.000739628 0)
(1.00316 0.000797881 0)
(1.00348 0.000837126 0)
(1.00375 0.000874569 0)
(1.00402 0.000905344 0)
(1.00421 0.000933005 0)
(1.00432 0.000958758 0)
(1.00425 0.000977207 0)
(1.00004 4.17403e-05 0)
(1.00004 0.000130778 0)
(1.00026 0.000210496 0)
(1.00043 0.000276265 0)
(1.0007 0.000329613 0)
(1.00093 0.000377033 0)
(1.00123 0.000418683 0)
(1.00148 0.000459711 0)
(1.00176 0.00051128 0)
(1.00202 0.000544511 0)
(1.00232 0.000586805 0)
(1.00257 0.000639196 0)
(1.00291 0.00066231 0)
(1.00317 0.000700592 0)
(1.00348 0.000732268 0)
(1.00374 0.000754535 0)
(1.00401 0.000777021 0)
(1.00419 0.000788502 0)
(1.0043 0.000806766 0)
(1.00422 0.000814426 0)
(1.00004 3.90403e-05 0)
(1.00004 0.000117928 0)
(1.00025 0.000190794 0)
(1.00042 0.000251834 0)
(1.00069 0.000302758 0)
(1.00092 0.000347084 0)
(1.00122 0.000392793 0)
(1.00147 0.000429623 0)
(1.00175 0.000478278 0)
(1.002 0.000518589 0)
(1.00232 0.000541878 0)
(1.00256 0.000582015 0)
(1.00288 0.000598595 0)
(1.00316 0.000601297 0)
(1.00346 0.000610978 0)
(1.00372 0.00059981 0)
(1.00398 0.000593231 0)
(1.00416 0.000570211 0)
(1.00426 0.000553861 0)
(1.00418 0.000532158 0)
(1.00004 3.57428e-05 0)
(1.00004 9.948e-05 0)
(1.00025 0.00017118 0)
(1.00041 0.000225519 0)
(1.00068 0.000282732 0)
(1.00091 0.000327668 0)
(1.00121 0.000385075 0)
(1.00146 0.000433274 0)
(1.00176 0.000491808 0)
(1.00199 0.000555702 0)
(1.0023 0.000604957 0)
(1.00254 0.000651759 0)
(1.00282 0.000699649 0)
(1.00307 0.000709223 0)
(1.00335 0.00071723 0)
(1.00357 0.000693035 0)
(1.0038 0.000654177 0)
(1.00395 0.000587191 0)
(1.00405 0.000502293 0)
(1.00396 0.000405762 0)
(1.00004 1.66584e-05 0)
(1.00004 4.54444e-05 0)
(1.00026 8.25595e-05 0)
(1.00042 0.000108695 0)
(1.00069 0.000141805 0)
(1.00093 0.000166582 0)
(1.00124 0.000200517 0)
(1.0015 0.000230652 0)
(1.00182 0.000265603 0)
(1.00206 0.000304794 0)
(1.00237 0.000343893 0)
(1.00262 0.000375696 0)
(1.00288 0.000414934 0)
(1.00309 0.000433699 0)
(1.0033 0.000446346 0)
(1.00344 0.000440149 0)
(1.00356 0.000417933 0)
(1.00357 0.000376013 0)
(1.00353 0.000315379 0)
(1.00334 0.000243034 0)
(0.984958 0.00226577 0)
(0.960604 0.00339126 0)
(0.936124 0.0037175 0)
(0.911288 0.00366042 0)
(0.886069 0.0035651 0)
(0.86043 0.00352685 0)
(0.834435 0.00351947 0)
(0.808025 0.0035084 0)
(0.78122 0.00348102 0)
(0.753975 0.00343813 0)
(0.726345 0.00339251 0)
(0.698187 0.00335295 0)
(0.669509 0.00331382 0)
(0.640336 0.00327132 0)
(0.610732 0.00322433 0)
(0.580677 0.00317592 0)
(0.550162 0.00312031 0)
(0.519237 0.0030473 0)
(0.488029 0.00295728 0)
(0.456623 0.00285221 0)
(0.425209 0.0027202 0)
(0.394026 0.00254638 0)
(0.36353 0.00233659 0)
(0.334288 0.0020597 0)
(0.307084 0.00166492 0)
(0.282844 0.00116748 0)
(0.26258 0.000572905 0)
(0.246999 5.62891e-05 0)
(0.235949 -0.000288436 0)
(0.228321 -0.000451455 0)
(0.222941 -0.000502848 0)
(0.219005 -0.000478387 0)
(0.215973 -0.000442571 0)
(0.213435 -0.00039765 0)
(0.211185 -0.000341967 0)
(0.209004 -0.0002859 0)
(0.206764 -0.000233843 0)
(0.204406 -0.000188136 0)
(0.201928 -0.000151257 0)
(0.199327 -0.000118056 0)
(0.196666 -9.3785e-05 0)
(0.193919 -7.20026e-05 0)
(0.191139 -5.24774e-05 0)
(0.188295 -3.911e-05 0)
(0.185455 -2.7021e-05 0)
(0.182614 -1.84549e-05 0)
(0.179813 -1.06579e-05 0)
(0.177046 -4.05723e-06 0)
(0.17436 -8.0016e-07 0)
(0.171717 3.79616e-06 0)
(0.169161 9.08215e-06 0)
(0.166643 1.23374e-05 0)
(0.1642 1.40118e-05 0)
(0.161799 1.64101e-05 0)
(0.159483 1.85615e-05 0)
(0.157209 1.88346e-05 0)
(0.155058 1.91553e-05 0)
(0.15296 1.9699e-05 0)
(0.150946 2.03858e-05 0)
(0.148956 2.20189e-05 0)
(0.147062 2.08062e-05 0)
(0.145214 1.86969e-05 0)
(0.143472 2.00581e-05 0)
(0.141752 2.01636e-05 0)
(0.140134 1.79532e-05 0)
(0.138544 1.70072e-05 0)
(0.137062 1.64554e-05 0)
(0.135597 1.66335e-05 0)
(0.134253 1.53104e-05 0)
(0.132942 1.28884e-05 0)
(0.131744 1.2876e-05 0)
(0.130544 1.24617e-05 0)
(0.129471 1.12603e-05 0)
(0.128389 1.15729e-05 0)
(0.127426 9.4328e-06 0)
(0.126502 6.55524e-06 0)
(0.125706 8.2972e-06 0)
(0.124849 8.77453e-06 0)
(0.124118 6.1222e-06 0)
(0.123423 4.4866e-06 0)
(0.122854 5.24689e-06 0)
(0.122222 5.38148e-06 0)
(0.121713 4.03796e-06 0)
(0.121197 2.90959e-06 0)
(0.120812 3.05058e-06 0)
(0.120363 3.10564e-06 0)
(0.120044 2.08741e-06 0)
(0.119679 1.7289e-06 0)
(0.11944 1.8948e-06 0)
(0.119123 1.47379e-06 0)
(0.118949 1.04991e-06 0)
(0.118691 9.90755e-07 0)
(0.11857 1.00286e-06 0)
(0.118343 7.23471e-07 0)
(0.118277 5.79599e-07 0)
(0.118077 6.2878e-07 0)
(0.118056 5.73267e-07 0)
(0.117851 7.19163e-07 0)
(0.117878 1.22627e-06 0)
(0.117574 2.45806e-06 0)
(0.997399 0.00406238 0)
(0.996277 0.00583216 0)
(0.994903 0.00649422 0)
(0.993205 0.00647175 0)
(0.991129 0.00632953 0)
(0.988451 0.0062904 0)
(0.985261 0.00633538 0)
(0.981407 0.00640843 0)
(0.976972 0.0064732 0)
(0.971822 0.00652555 0)
(0.966015 0.00657173 0)
(0.959391 0.00662473 0)
(0.951937 0.00667576 0)
(0.943617 0.00671534 0)
(0.934427 0.00675045 0)
(0.924329 0.00677974 0)
(0.913243 0.00681183 0)
(0.901171 0.00683219 0)
(0.888072 0.00683782 0)
(0.873974 0.00682277 0)
(0.858859 0.00677595 0)
(0.842788 0.00667385 0)
(0.825927 0.00649976 0)
(0.808452 0.00622371 0)
(0.790768 0.00578446 0)
(0.773228 0.00517573 0)
(0.756505 0.00439388 0)
(0.740975 0.00354852 0)
(0.727023 0.00275947 0)
(0.714292 0.00213387 0)
(0.702592 0.001697 0)
(0.691515 0.00140402 0)
(0.680976 0.00120177 0)
(0.670817 0.0010504 0)
(0.660899 0.000943724 0)
(0.651208 0.000878379 0)
(0.641634 0.000837709 0)
(0.632122 0.000808598 0)
(0.622735 0.000785438 0)
(0.613347 0.0007595 0)
(0.604167 0.000732228 0)
(0.594994 0.000710668 0)
(0.585956 0.000688509 0)
(0.576984 0.000666764 0)
(0.568133 0.000640723 0)
(0.559368 0.000613351 0)
(0.550789 0.000587641 0)
(0.542294 0.000554952 0)
(0.53408 0.000527781 0)
(0.525968 0.000501215 0)
(0.518061 0.00047141 0)
(0.510359 0.000450689 0)
(0.502888 0.000427325 0)
(0.495477 0.000404367 0)
(0.488383 0.000385806 0)
(0.481397 0.000360121 0)
(0.474709 0.000336531 0)
(0.46819 0.000320271 0)
(0.461908 0.000302975 0)
(0.455705 0.00028742 0)
(0.449858 0.000271078 0)
(0.44409 0.000253413 0)
(0.43858 0.00023984 0)
(0.433174 0.000225871 0)
(0.4281 0.000212377 0)
(0.42308 0.000201115 0)
(0.418331 0.000187304 0)
(0.413635 0.000175637 0)
(0.409338 0.00016221 0)
(0.405076 0.000149226 0)
(0.40114 0.0001433 0)
(0.397232 0.00013236 0)
(0.393644 0.000119325 0)
(0.390087 0.000115409 0)
(0.386963 0.000105051 0)
(0.383806 8.97712e-05 0)
(0.380976 8.77415e-05 0)
(0.378147 8.45131e-05 0)
(0.375721 7.1995e-05 0)
(0.373276 6.20778e-05 0)
(0.371188 5.98757e-05 0)
(0.369031 5.66959e-05 0)
(0.367264 4.89543e-05 0)
(0.365426 4.16596e-05 0)
(0.363962 3.87914e-05 0)
(0.362387 3.60306e-05 0)
(0.361205 3.02751e-05 0)
(0.359865 2.65162e-05 0)
(0.358927 2.46848e-05 0)
(0.357792 2.12313e-05 0)
(0.357081 1.80271e-05 0)
(0.356115 1.58769e-05 0)
(0.355603 1.44098e-05 0)
(0.354769 1.18086e-05 0)
(0.354447 1.03046e-05 0)
(0.353704 8.86698e-06 0)
(0.353562 8.14761e-06 0)
(0.352843 7.017e-06 0)
(0.352885 8.03482e-06 0)
(0.352083 1.24878e-05 0)
(0.99776 0.00369831 0)
(0.997059 0.00479987 0)
(0.996623 0.00547889 0)
(0.996453 0.00562063 0)
(0.996498 0.00554759 0)
(0.996514 0.00551564 0)
(0.996557 0.00558108 0)
(0.996487 0.00571696 0)
(0.996399 0.00586982 0)
(0.996165 0.00602468 0)
(0.995856 0.00617548 0)
(0.995312 0.00634101 0)
(0.994565 0.00651209 0)
(0.993538 0.00668106 0)
(0.992276 0.0068549 0)
(0.99071 0.00702528 0)
(0.988805 0.00720185 0)
(0.986535 0.00736429 0)
(0.983864 0.00750949 0)
(0.980776 0.00762387 0)
(0.977233 0.00770477 0)
(0.973204 0.00771664 0)
(0.968715 0.00763745 0)
(0.963728 0.00743468 0)
(0.958394 0.00705727 0)
(0.952686 0.006475 0)
(0.946904 0.00569549 0)
(0.941034 0.00479924 0)
(0.935376 0.00392039 0)
(0.929742 0.00320862 0)
(0.924293 0.00272304 0)
(0.918778 0.00241867 0)
(0.913356 0.00222735 0)
(0.907847 0.00209691 0)
(0.902336 0.00202081 0)
(0.896732 0.00197792 0)
(0.891055 0.00196228 0)
(0.885248 0.00195139 0)
(0.879333 0.00193997 0)
(0.873258 0.00192218 0)
(0.86712 0.00188779 0)
(0.860743 0.00186368 0)
(0.854356 0.00183652 0)
(0.847668 0.00180063 0)
(0.841026 0.00176429 0)
(0.834111 0.00171799 0)
(0.827205 0.00167393 0)
(0.820173 0.00162056 0)
(0.813076 0.00156095 0)
(0.805925 0.00151223 0)
(0.798751 0.00145608 0)
(0.79143 0.00139995 0)
(0.784267 0.00135087 0)
(0.776826 0.00129902 0)
(0.769559 0.00124865 0)
(0.762177 0.00119178 0)
(0.754893 0.00113132 0)
(0.747578 0.00108255 0)
(0.740389 0.00103782 0)
(0.733063 0.000991308 0)
(0.726022 0.000940126 0)
(0.718849 0.000891225 0)
(0.711919 0.000853007 0)
(0.704893 0.000808148 0)
(0.69814 0.00076048 0)
(0.691372 0.000725146 0)
(0.684837 0.000687073 0)
(0.678183 0.000645683 0)
(0.672042 0.000603608 0)
(0.66574 0.000562355 0)
(0.6598 0.000531379 0)
(0.653921 0.000499945 0)
(0.648368 0.000463411 0)
(0.642683 0.000432146 0)
(0.637658 0.00039615 0)
(0.632536 0.000361308 0)
(0.627782 0.00034278 0)
(0.623017 0.000317982 0)
(0.61883 0.000281996 0)
(0.614572 0.000254393 0)
(0.61079 0.000237685 0)
(0.606929 0.000218099 0)
(0.603653 0.000193825 0)
(0.60026 0.000172219 0)
(0.597401 0.000156921 0)
(0.594408 0.000141827 0)
(0.592032 0.000124424 0)
(0.589395 0.00011044 0)
(0.587414 9.97839e-05 0)
(0.585126 8.70109e-05 0)
(0.583547 7.63599e-05 0)
(0.581535 6.68964e-05 0)
(0.580325 5.98372e-05 0)
(0.578554 5.04849e-05 0)
(0.577701 4.47849e-05 0)
(0.576097 3.77893e-05 0)
(0.5756 3.45777e-05 0)
(0.574077 2.87725e-05 0)
(0.573929 2.83219e-05 0)
(0.572391 3.38339e-05 0)
(0.998204 0.0035535 0)
(0.997495 0.00444305 0)
(0.996985 0.00520612 0)
(0.996779 0.00560761 0)
(0.996872 0.0057027 0)
(0.997039 0.00572058 0)
(0.997311 0.00577581 0)
(0.997547 0.00589807 0)
(0.997865 0.0060483 0)
(0.998142 0.00621591 0)
(0.998501 0.00638166 0)
(0.998765 0.00656186 0)
(0.999033 0.00674167 0)
(0.999205 0.00691978 0)
(0.999395 0.007099 0)
(0.999519 0.00727724 0)
(0.999611 0.0074561 0)
(0.999636 0.0076261 0)
(0.999619 0.00778019 0)
(0.999541 0.00790897 0)
(0.999407 0.00800151 0)
(0.999179 0.00802827 0)
(0.998874 0.00795325 0)
(0.998399 0.00775607 0)
(0.99784 0.00738738 0)
(0.997026 0.00682845 0)
(0.996121 0.00608433 0)
(0.994905 0.00522784 0)
(0.993608 0.00438007 0)
(0.992002 0.0036759 0)
(0.990371 0.00318145 0)
(0.988531 0.0028739 0)
(0.986728 0.00268091 0)
(0.984803 0.00256549 0)
(0.982902 0.00249886 0)
(0.980924 0.00246164 0)
(0.978945 0.00244156 0)
(0.976859 0.00242562 0)
(0.974766 0.00241344 0)
(0.97251 0.00239103 0)
(0.970283 0.00236207 0)
(0.967789 0.00234069 0)
(0.965368 0.00232323 0)
(0.962632 0.00229876 0)
(0.959934 0.00226582 0)
(0.956955 0.00223228 0)
(0.95395 0.00219194 0)
(0.950767 0.00214411 0)
(0.947515 0.00209453 0)
(0.944084 0.00204736 0)
(0.940656 0.00200028 0)
(0.936937 0.0019499 0)
(0.933324 0.00190538 0)
(0.929358 0.00186235 0)
(0.925465 0.00181419 0)
(0.921341 0.00176042 0)
(0.917219 0.00170023 0)
(0.912861 0.00164878 0)
(0.908596 0.00160612 0)
(0.90401 0.00155751 0)
(0.899593 0.00150073 0)
(0.894888 0.00144683 0)
(0.890283 0.00140311 0)
(0.885454 0.00135376 0)
(0.880755 0.00129551 0)
(0.875815 0.0012488 0)
(0.871077 0.0012065 0)
(0.865999 0.00115268 0)
(0.861259 0.00109258 0)
(0.856238 0.00104278 0)
(0.851403 0.000997294 0)
(0.846434 0.000945109 0)
(0.841738 0.000897842 0)
(0.836705 0.000852722 0)
(0.832174 0.000790987 0)
(0.827391 0.000737176 0)
(0.822883 0.000706893 0)
(0.818229 0.000662761 0)
(0.814036 0.000602174 0)
(0.809619 0.000555253 0)
(0.805642 0.000523809 0)
(0.801449 0.000485383 0)
(0.797807 0.000440015 0)
(0.793912 0.000400239 0)
(0.790579 0.000369762 0)
(0.786948 0.000336673 0)
(0.784036 0.000303089 0)
(0.780661 0.000273884 0)
(0.778108 0.00024999 0)
(0.77501 0.000221734 0)
(0.772873 0.000199375 0)
(0.770005 0.000176758 0)
(0.768278 0.000160104 0)
(0.765621 0.000138139 0)
(0.764329 0.00012514 0)
(0.761823 0.00010687 0)
(0.760995 9.83647e-05 0)
(0.758559 8.28703e-05 0)
(0.758204 7.8445e-05 0)
(0.755756 7.73016e-05 0)
(0.998549 0.00353666 0)
(0.997856 0.00433237 0)
(0.997299 0.00509442 0)
(0.997004 0.00561308 0)
(0.997037 0.00580682 0)
(0.997187 0.00584876 0)
(0.997476 0.0058662 0)
(0.997731 0.00593386 0)
(0.998082 0.00603967 0)
(0.99839 0.0061791 0)