/*--------------------------------*- C++ -*----------------------------------*\
| =========                 |                                                 |
| \\      /  F ield         | OpenFOAM: The Open Source CFD Toolbox           |
|  \\    /   O peration     | Version:  v1906                                 |
|   \\  /    A nd           | Web:      www.OpenFOAM.com                      |
|    \\/     M anipulation  |                                                 |
\*---------------------------------------------------------------------------*/
FoamFile
{
    version     2.0;
    format      ascii;
    class       volVectorField;
    location    "0.3";
    object      U;
}
// * * * * * * * * * * * * * * * * * * * * * * * * * * * * * * * * * * * * * //

dimensions      [0 1 -1 0 0 0 0];


internalField   nonuniform List<vector> 
400
(
(8.6662 0.593432 0)
(7.79132 0.90354 0)
(6.57326 0.803428 0)
(5.31098 0.604677 0)
(4.34052 0.414293 0)
(3.66128 0.266207 0)
(3.17993 0.166638 0)
(2.83124 0.105899 0)
(2.57421 0.0706126 0)
(2.37937 0.0503596 0)
(2.2262 0.038491 0)
(2.1015 0.0311294 0)
(1.99718 0.0261602 0)
(1.90812 0.0225324 0)
(1.83101 0.0197243 0)
(1.76327 0.0176159 0)
(1.70337 0.016112 0)
(1.64841 0.0158925 0)
(1.59734 0.0166654 0)
(1.52792 0.0236583 0)
(10.0413 0.975996 0)
(10.488 1.68488 0)
(10.4902 1.73131 0)
(10.0581 1.54119 0)
(9.44042 1.27532 0)
(8.79137 1.00325 0)
(8.16853 0.76658 0)
(7.59819 0.581573 0)
(7.09429 0.445687 0)
(6.65887 0.34872 0)
(6.28568 0.279838 0)
(5.96542 0.230235 0)
(5.68906 0.193554 0)
(5.44867 0.165636 0)
(5.23825 0.143724 0)
(5.05187 0.12648 0)
(4.88746 0.112622 0)
(4.73612 0.103491 0)
(4.61089 0.0966489 0)
(4.43933 0.103729 0)
(10.0554 0.601915 0)
(10.523 1.32487 0)
(10.9341 1.59939 0)
(11.1229 1.63835 0)
(11.1025 1.5592 0)
(10.9356 1.41598 0)
(10.6709 1.24678 0)
(10.3452 1.07866 0)
(9.99013 0.925897 0)
(9.62968 0.793521 0)
(9.27927 0.681716 0)
(8.94724 0.588568 0)
(8.63778 0.511318 0)
(8.35165 0.447286 0)
(8.08962 0.393864 0)
(7.84798 0.349444 0)
(7.63152 0.312036 0)
(7.42271 0.282186 0)
(7.26397 0.258236 0)
(7.02332 0.241307 0)
(10.0219 0.333146 0)
(10.2905 0.871577 0)
(10.656 1.2028 0)
(10.992 1.37238 0)
(11.2296 1.43517 0)
(11.3599 1.42324 0)
(11.3943 1.36131 0)
(11.348 1.27148 0)
(11.2388 1.17011 0)
(11.0846 1.06724 0)
(10.9007 0.968362 0)
(10.6988 0.876318 0)
(10.4881 0.79226 0)
(10.2743 0.716429 0)
(10.0644 0.648511 0)
(9.85642 0.587811 0)
(9.66512 0.534418 0)
(9.46342 0.485508 0)
(9.32199 0.448218 0)
(9.07042 0.39916 0)
(10.0109 0.211464 0)
(10.1576 0.59714 0)
(10.4019 0.890901 0)
(10.6861 1.0848 0)
(10.9502 1.19913 0)
(11.1667 1.25274 0)
(11.3284 1.26043 0)
(11.4354 1.23592 0)
(11.4911 1.19093 0)
(11.502 1.13403 0)
(11.4757 1.07094 0)
(11.419 1.00539 0)
(11.3394 0.939922 0)
(11.2408 0.87588 0)
(11.1319 0.814752 0)
(11.009 0.755632 0)
(10.8926 0.702083 0)
(10.75 0.645735 0)
(10.661 0.605758 0)
(10.4573 0.534711 0)
(10.007 0.150584 0)
(10.095 0.436445 0)
(10.2519 0.676376 0)
(10.4566 0.85418 0)
(10.6724 0.975509 0)
(10.8756 1.05176 0)
(11.0561 1.09245 0)
(11.2092 1.10573 0)
(11.3325 1.09889 0)
(11.4258 1.07784 0)
(11.491 1.04704 0)
(11.5302 1.00957 0)
(11.5473 0.967995 0)
(11.5432 0.923452 0)
(11.5251 0.878337 0)
(11.4876 0.830704 0)
(11.4499 0.786861 0)
(11.3813 0.733925 0)
(11.35 0.698972 0)
(11.2229 0.622572 0)
(10.0049 0.113601 0)
(10.0625 0.332409 0)
(10.1673 0.52573 0)
(10.3121 0.679901 0)
(10.4757 0.794288 0)
(10.6414 0.874951 0)
(10.8004 0.928183 0)
(10.948 0.959286 0)
(11.0812 0.973014 0)
(11.198 0.973437 0)
(11.2978 0.963909 0)
(11.3804 0.946748 0)
(11.4473 0.924168 0)
(11.4978 0.896794 0)
(11.5364 0.867239 0)
(11.5578 0.832808 0)
(11.576 0.800753 0)
(11.568 0.756881 0)
(11.5799 0.729418 0)
(11.5249 0.660338 0)
(10.0035 0.0886906 0)
(10.0437 0.260857 0)
(10.1173 0.417868 0)
(10.2224 0.549761 0)
(10.3463 0.653539 0)
(10.4774 0.731656 0)
(10.6085 0.788019 0)
(10.7358 0.826288 0)
(10.8567 0.849828 0)
(10.9694 0.861609 0)
(11.0728 0.864247 0)
(11.1659 0.859538 0)
(11.2494 0.84936 0)
(11.322 0.834047 0)
(11.3862 0.816004 0)
(11.438 0.792539 0)
(11.4857 0.770298 0)
(11.5151 0.736634 0)
(11.5515 0.716028 0)
(11.5471 0.660015 0)
(10.0026 0.0710244 0)
(10.032 0.209668 0)
(10.0861 0.338746 0)
(10.1649 0.451224 0)
(10.2606 0.543684 0)
(10.3648 0.616563 0)
(10.472 0.672038 0)
(10.5789 0.712568 0)
(10.6833 0.740567 0)
(10.7836 0.758244 0)
(10.8787 0.767661 0)
(10.9679 0.770277 0)
(11.0512 0.767686 0)
(11.1275 0.76018 0)
(11.1982 0.749777 0)
(11.2606 0.73434 0)
(11.3191 0.719165 0)
(11.3659 0.69452 0)
(11.4123 0.679261 0)
(11.4356 0.636879 0)
(10.002 0.0579611 0)
(10.0244 0.171573 0)
(10.0657 0.278816 0)
(10.1266 0.374728 0)
(10.2021 0.45626 0)
(10.2864 0.522912 0)
(10.3749 0.575716 0)
(10.4648 0.616209 0)
(10.5543 0.646061 0)
(10.6418 0.666885 0)
(10.7265 0.680272 0)
(10.8074 0.687418 0)
(10.8844 0.689646 0)
(10.9568 0.687315 0)
(11.0252 0.682026 0)
(11.0881 0.672367 0)
(11.1472 0.662205 0)
(11.199 0.644813 0)
(11.2472 0.63363 0)
(11.2818 0.603036 0)
(10.0016 0.047927 0)
(10.0192 0.142162 0)
(10.0517 0.231987 0)
(10.1001 0.313867 0)
(10.1611 0.385319 0)
(10.2304 0.445504 0)
(10.3046 0.494762 0)
(10.3811 0.533969 0)
(10.4584 0.564226 0)
(10.535 0.586674 0)
(10.61 0.602505 0)
(10.6825 0.612675 0)
(10.7523 0.618252 0)
(10.8188 0.61965 0)
(10.8821 0.618096 0)
(10.9413 0.612814 0)
(10.9973 0.606481 0)
(11.0481 0.594837 0)
(11.0945 0.586948 0)
(11.1311 0.565831 0)
(10.0013 0.0399624 0)
(10.0155 0.11873 0)
(10.0419 0.194369 0)
(10.0814 0.264333 0)
(10.1318 0.326675 0)
(10.1898 0.380505 0)
(10.2529 0.425785 0)
(10.319 0.462953 0)
(10.3865 0.492697 0)
(10.4541 0.515798 0)
(10.521 0.533118 0)
(10.5862 0.545403 0)
(10.6495 0.553482 0)
(10.7102 0.557785 0)
(10.7682 0.559228 0)
(10.823 0.557497 0)
(10.8749 0.554369 0)
(10.9226 0.547406 0)
(10.9663 0.542376 0)
(11.0011 0.5288 0)
(10.0011 0.0334522 0)
(10.0129 0.0995242 0)
(10.0349 0.163355 0)
(10.068 0.223098 0)
(10.1105 0.277257 0)
(10.1601 0.325013 0)
(10.2146 0.36615 0)
(10.2724 0.400833 0)
(10.3321 0.429459 0)
(10.3926 0.452541 0)
(10.4528 0.470683 0)
(10.512 0.484448 0)
(10.5697 0.494458 0)
(10.6254 0.501122 0)
(10.6788 0.505103 0)
(10.7295 0.50639 0)
(10.7777 0.5061 0)
(10.822 0.503084 0)
(10.8632 0.500644 0)
(10.8951 0.493205 0)
(10.0009 0.0279775 0)
(10.0111 0.0833389 0)
(10.0299 0.137108 0)
(10.0583 0.187955 0)
(10.0951 0.234747 0)
(10.1383 0.276786 0)
(10.1863 0.313783 0)
(10.2376 0.345742 0)
(10.2912 0.372862 0)
(10.3458 0.39546 0)
(10.4006 0.413938 0)
(10.4548 0.428707 0)
(10.508 0.440215 0)
(10.5595 0.448824 0)
(10.6092 0.454997 0)
(10.6564 0.458908 0)
(10.7014 0.461178 0)
(10.7428 0.461578 0)
(10.7818 0.461511 0)
(10.811 0.459233 0)
(10.0008 0.023238 0)
(10.0097 0.0693047 0)
(10.0263 0.114284 0)
(10.0515 0.157247 0)
(10.084 0.197358 0)
(10.1226 0.234042 0)
(10.1656 0.266997 0)
(10.212 0.296134 0)
(10.2607 0.321518 0)
(10.3107 0.343321 0)
(10.3612 0.36179 0)
(10.4114 0.377206 0)
(10.4609 0.389876 0)
(10.509 0.400101 0)
(10.5555 0.408178 0)
(10.5999 0.414392 0)
(10.6424 0.418973 0)
(10.6813 0.42238 0)
(10.7187 0.42448 0)
(10.7455 0.426661 0)
(10.0007 0.0190039 0)
(10.0089 0.0567645 0)
(10.024 0.0938711 0)
(10.0469 0.12972 0)
(10.0766 0.16371 0)
(10.1117 0.195379 0)
(10.1512 0.224441 0)
(10.1939 0.250751 0)
(10.239 0.274284 0)
(10.2854 0.295102 0)
(10.3325 0.313329 0)
(10.3795 0.329138 0)
(10.426 0.342715 0)
(10.4713 0.354296 0)
(10.5153 0.364038 0)
(10.5572 0.372288 0)
(10.5977 0.378958 0)
(10.6347 0.385035 0)
(10.6707 0.389096 0)
(10.6957 0.395175 0)
(10.0007 0.0150549 0)
(10.0084 0.0451327 0)
(10.0228 0.0750306 0)
(10.0443 0.10438 0)
(10.0722 0.132745 0)
(10.1052 0.159755 0)
(10.1422 0.185139 0)
(10.1824 0.208723 0)
(10.2247 0.23041 0)
(10.2685 0.250175 0)
(10.313 0.268043 0)
(10.3575 0.284093 0)
(10.4015 0.298405 0)
(10.4446 0.311153 0)
(10.4865 0.322367 0)
(10.5265 0.332436 0)
(10.5652 0.340993 0)
(10.6005 0.349453 0)
(10.6354 0.355291 0)
(10.6589 0.364743 0)
(10.0007 0.0110615 0)
(10.0086 0.0335627 0)
(10.0229 0.0565805 0)
(10.044 0.0798493 0)
(10.071 0.102998 0)
(10.1028 0.125701 0)
(10.1383 0.147691 0)
(10.1767 0.168755 0)
(10.2171 0.188732 0)
(10.2589 0.207519 0)
(10.3014 0.225054 0)
(10.3439 0.241328 0)
(10.386 0.256328 0)
(10.4272 0.27016 0)
(10.4674 0.282747 0)
(10.5057 0.294491 0)
(10.543 0.304791 0)
(10.5769 0.315426 0)
(10.6108 0.322926 0)
(10.633 0.335463 0)
(10.0008 0.00656716 0)
(10.0096 0.0207898 0)
(10.0247 0.0365162 0)
(10.0461 0.0534575 0)
(10.073 0.0712442 0)
(10.1042 0.0895545 0)
(10.1388 0.108096 0)
(10.1761 0.126604 0)
(10.2152 0.14485 0)
(10.2555 0.16265 0)
(10.2965 0.179855 0)
(10.3374 0.196367 0)
(10.378 0.212081 0)
(10.4176 0.227023 0)
(10.4563 0.241014 0)
(10.4932 0.254435 0)
(10.5293 0.26648 0)
(10.5621 0.27923 0)
(10.5951 0.28837 0)
(10.6164 0.304261 0)
(10.001 0.00224735 0)
(10.0109 0.00881376 0)
(10.027 0.0176417 0)
(10.049 0.0284678 0)
(10.0761 0.0409753 0)
(10.1072 0.0548612 0)
(10.1414 0.0698253 0)
(10.178 0.0855754 0)
(10.2164 0.101837 0)
(10.2558 0.118367 0)
(10.2958 0.134943 0)
(10.3357 0.151393 0)
(10.3752 0.167527 0)
(10.4138 0.1833 0)
(10.4515 0.198436 0)
(10.4875 0.213283 0)
(10.5228 0.226844 0)
(10.5549 0.241366 0)
(10.5877 0.251863 0)
(10.6086 0.270169 0)
)
;

boundaryField
{
    movingWall
    {
        type            zeroGradient;
    }
    bottomWall
    {
        type            noSlip;
    }
    leftSide
    {
        type            fixedValue;
        value           uniform (10 0 0);
    }
    rightSide
    {
        type            zeroGradient;
    }
    frontAndBack
    {
        type            empty;
    }
}


// ************************************************************************* //
